  python dir          : /home/vossj/suncat/lib/python2.7/site-packages/espresso
  espresso dir        : /home/vossj/suncat/esdld/espresso-dynpy-beef/bin
  pseudo dir          : /home/alatimer/bin/psp/esp_psp_w_gbrvRu/
  ase-espresso py git : ffa2778-git



     Program PWSCF v.5.1rc2 (svn rev. ) starts on 23Mar2018 at  9:18:16 

     This program is part of the open-source Quantum ESPRESSO suite
     for quantum simulation of materials; please cite
         "P. Giannozzi et al., J. Phys.:Condens. Matter 21 395502 (2009);
          URL http://www.quantum-espresso.org", 
     in publications or presentations arising from this work. More details at
     http://www.quantum-espresso.org/quote

     Parallel version (MPI), running on    16 processors
     R & G space division:  proc/nbgrp/npool/nimage =      16
     Reading input from pw.inp
     Message from routine read_cards :
     DEPRECATED: no units specified in CELL_PARAMETERS card

     Current dimensions of program PWSCF are:
     Max number of different atomic species (ntypx) = 10
     Max number of k-points (npk) =  40000
     Max angular momentum in pseudopotentials (lmaxx) =  3
     Presently no symmetry can be used with electric field


     IMPORTANT: XC functional enforced from input :
     Exchange-correlation      = RPBE ( 1  4 28  4 0)
     Any further DFT definition will be discarded
     Please, verify this is what you really want

               file Ni.UPF: wavefunction(s)  3D renormalized

     Subspace diagonalization in iterative solution of the eigenvalue problem:
     a serial algorithm will be used

 
     Parallelization info
     --------------------
     sticks:   dense  smooth     PW     G-vecs:    dense   smooth      PW
     Min         363     145     39               122687    31011    4299
     Max         364     146     40               122712    31054    4310
     Sum        5823    2325    627              1963319   496527   68879
 
     Generating pointlists ...
     new r_m :   0.4125 (alat units)  0.7795 (a.u.) for type    1
     new r_m :   0.4125 (alat units)  0.7795 (a.u.) for type    2


     bravais-lattice index     =            0
     lattice parameter (alat)  =       1.8897  a.u.
     unit-cell volume          =   12553.3819 (a.u.)^3
     number of atoms/cell      =           37
     number of atomic types    =            2
     number of electrons       =       364.00
     number of Kohn-Sham states=          282
     kinetic-energy cutoff     =      44.0992  Ry
     charge density cutoff     =     440.9919  Ry
     convergence threshold     =      7.3E-07
     mixing beta               =       0.1000
     number of iterations used =           10  plain     mixing
     Exchange-correlation      = RPBE ( 1  4 28  4 0)
     nstep                     =           50


     celldm(1)=   1.889726  celldm(2)=   0.000000  celldm(3)=   0.000000
     celldm(4)=   0.000000  celldm(5)=   0.000000  celldm(6)=   0.000000

     crystal axes: (cart. coord. in units of alat)
               a(1) = (   6.162925   0.000000   0.000000 )  
               a(2) = (   0.000000   7.548011   0.000000 )  
               a(3) = (   0.000000   0.000000  39.989385 )  

     reciprocal axes: (cart. coord. in units 2 pi/alat)
               b(1) = (  0.162261  0.000000  0.000000 )  
               b(2) = (  0.000000  0.132485  0.000000 )  
               b(3) = (  0.000000  0.000000  0.025007 )  


     PseudoPot. # 1 for Ni read from file:
     /home/alatimer/bin/psp/esp_psp_w_gbrvRu/Ni.UPF
     MD5 check sum: 8b2449ee0060d9c33484ccd47bb60870
     Pseudo is Ultrasoft + core correction, Zval = 10.0
     Generated using "atomic" code by A. Dal Corso  v.5.0.2 svn rev. 9415
     Using radial grid of 1195 points,  6 beta functions with: 
                l(1) =   0
                l(2) =   0
                l(3) =   1
                l(4) =   1
                l(5) =   2
                l(6) =   2
     Q(r) pseudized with 0 coefficients 


     PseudoPot. # 2 for  C read from file:
     /home/alatimer/bin/psp/esp_psp_w_gbrvRu/C.UPF
     MD5 check sum: ab446d787031eba755f1d5ee46644bb0
     Pseudo is Ultrasoft + core correction, Zval =  4.0
     Generated using "atomic" code by A. Dal Corso  v.5.0.2 svn rev. 9415
     Using radial grid of 1073 points,  4 beta functions with: 
                l(1) =   0
                l(2) =   0
                l(3) =   1
                l(4) =   1
     Q(r) pseudized with 0 coefficients 


     atomic species   valence    mass     pseudopotential
        Ni1           10.00    58.69340     Ni( 1.00)
        C1             4.00    12.01100      C( 1.00)

     Starting magnetic structure 
     atomic species   magnetization
        Ni1          0.300
        C1           0.750

     No symmetry found



   Cartesian axes

     site n.     atom                  positions (alat units)
         1           Ni1 tau(   1) = (   0.0000000   1.2580018  23.9893847  )
         2           Ni1 tau(   2) = (   0.0000000   3.7740055  23.9893847  )
         3           Ni1 tau(   3) = (   0.0000000   6.2900092  23.9893847  )
         4           Ni1 tau(   4) = (   4.1086168   0.0000000  23.2630770  )
         5           Ni1 tau(   5) = (   4.1086168   2.5160037  23.2630770  )
         6           Ni1 tau(   6) = (   4.1086168   5.0320073  23.2630770  )
         7           Ni1 tau(   7) = (   2.0543084   1.2580018  22.5367693  )
         8           Ni1 tau(   8) = (   2.0543084   3.7740055  22.5367693  )
         9           Ni1 tau(   9) = (   2.0543084   6.2900092  22.5367693  )
        10           Ni1 tau(  10) = (   0.0000000   0.0000000  21.8104616  )
        11           Ni1 tau(  11) = (   0.0000000   2.5160037  21.8104616  )
        12           Ni1 tau(  12) = (   0.0000000   5.0320073  21.8104616  )
        13           Ni1 tau(  13) = (   4.1086168   1.2580018  21.0841539  )
        14           Ni1 tau(  14) = (   4.1086168   3.7740055  21.0841539  )
        15           Ni1 tau(  15) = (   4.1086168   6.2900092  21.0841539  )
        16           Ni1 tau(  16) = (   2.0543084   0.0000000  20.3578462  )
        17           Ni1 tau(  17) = (   2.0543084   2.5160037  20.3578462  )
        18           Ni1 tau(  18) = (   2.0543084   5.0320073  20.3578462  )
        19           Ni1 tau(  19) = (   0.0000000   1.2580018  19.6315385  )
        20           Ni1 tau(  20) = (   0.0000000   3.7740055  19.6315385  )
        21           Ni1 tau(  21) = (   0.0000000   6.2900092  19.6315385  )
        22           Ni1 tau(  22) = (   4.1086168   0.0000000  18.9052308  )
        23           Ni1 tau(  23) = (   4.1086168   2.5160037  18.9052308  )
        24           Ni1 tau(  24) = (   4.1086168   5.0320073  18.9052308  )
        25           Ni1 tau(  25) = (   2.0543084   1.2580018  18.1789231  )
        26           Ni1 tau(  26) = (   2.0543084   3.7740055  18.1789231  )
        27           Ni1 tau(  27) = (   2.0543084   6.2900092  18.1789231  )
        28           Ni1 tau(  28) = (   0.0000000   0.0000000  17.4526154  )
        29           Ni1 tau(  29) = (   0.0000000   2.5160037  17.4526154  )
        30           Ni1 tau(  30) = (   0.0000000   5.0320073  17.4526154  )
        31           Ni1 tau(  31) = (   4.1086168   1.2580018  16.7263077  )
        32           Ni1 tau(  32) = (   4.1086168   3.7740055  16.7263077  )
        33           Ni1 tau(  33) = (   4.1086168   6.2900092  16.7263077  )
        34           Ni1 tau(  34) = (   2.0543084   0.0000000  16.0000000  )
        35           Ni1 tau(  35) = (   2.0543084   2.5160037  16.0000000  )
        36           Ni1 tau(  36) = (   2.0543084   5.0320073  16.0000000  )
        37           C1  tau(  37) = (   1.9993671   2.6166424  23.7893806  )

     number of k points=    10  Fermi-Dirac smearing, width (Ry)=  0.0073
                       cart. coord. in units 2pi/alat
        k(    1) = (   0.0000000   0.0000000   0.0000000), wk =   0.1111111
        k(    2) = (   0.0000000   0.0441617   0.0000000), wk =   0.2222222
        k(    3) = (   0.0540869   0.0000000   0.0000000), wk =   0.2222222
        k(    4) = (   0.0540869   0.0441617   0.0000000), wk =   0.2222222
        k(    5) = (   0.0540869  -0.0441617   0.0000000), wk =   0.2222222
        k(    6) = (   0.0000000   0.0000000   0.0000000), wk =   0.1111111
        k(    7) = (   0.0000000   0.0441617   0.0000000), wk =   0.2222222
        k(    8) = (   0.0540869   0.0000000   0.0000000), wk =   0.2222222
        k(    9) = (   0.0540869   0.0441617   0.0000000), wk =   0.2222222
        k(   10) = (   0.0540869  -0.0441617   0.0000000), wk =   0.2222222

     Dense  grid:  1963319 G-vectors     FFT dimensions: (  80,  96, 512)

     Smooth grid:   496527 G-vectors     FFT dimensions: (  50,  64, 320)

     Largest allocated arrays     est. size (Mb)     dimensions
        Kohn-Sham Wavefunctions        16.77 Mb     (    3897,  282)
        NL pseudopotentials            39.01 Mb     (    3897,  656)
        Each V/rho on FFT grid          7.50 Mb     (  245760,   2)
        Each G-vector array             0.94 Mb     (  122712)
        G-vector shells                 0.42 Mb     (   55687)
     Largest temporary arrays     est. size (Mb)     dimensions
        Auxiliary wavefunctions        67.07 Mb     (    3897, 1128)
        Each subspace H/S matrix       19.42 Mb     (    1128, 1128)
        Each <psi_i|beta_j> matrix      2.82 Mb     (     656,  282)
        Arrays for rho mixing          37.50 Mb     (  245760,   10)

     Initial potential from superposition of free atoms
     Check: negative starting charge=(component1):   -0.000956
     Check: negative starting charge=(component2):   -0.000513

     starting charge  363.99092, renormalised to  364.00000

     negative rho (up, down):  9.561E-04 5.134E-04
 
     Adding external electric field

     Computed dipole along edir(3) : 
        Dipole               -0.0004 Ry au,         -0.0011 Debye
        Dipole field         -0.0000 Ry au
 
        Potential amp.        0.0001 Ry
        Total length         73.6798 bohr
 
 
     Adding external electric field

     Computed dipole along edir(3) : 
        Dipole               -0.0004 Ry au,         -0.0011 Debye
        Dipole field         -0.0000 Ry au
 
        Potential amp.        0.0001 Ry
        Total length         73.6798 bohr
 
     Starting wfc are  328 randomized atomic wfcs

     total cpu time spent up to now is       56.4 secs

     Self-consistent Calculation

     iteration #  1     ecut=    44.10 Ry     beta=0.10
     Davidson diagonalization with overlap
     ethr =  1.00E-02,  avg # of iterations =  8.4

     negative rho (up, down):  8.696E-04 4.561E-04
 
     Adding external electric field

     Computed dipole along edir(3) : 
        Dipole               -0.8393 Ry au,         -2.1334 Debye
        Dipole field         -0.0008 Ry au
 
        Potential amp.        0.1238 Ry
        Total length         73.6798 bohr
 
 
     Adding external electric field

     Computed dipole along edir(3) : 
        Dipole               -0.8393 Ry au,         -2.1334 Debye
        Dipole field         -0.0008 Ry au
 
        Potential amp.        0.1238 Ry
        Total length         73.6798 bohr
 
 
     Magnetic moment per site:
     atom:    1    charge:    3.9347    magn:    1.1479    constr:    0.0000
     atom:    2    charge:    3.9382    magn:    1.1443    constr:    0.0000
     atom:    3    charge:    3.9274    magn:    1.1545    constr:    0.0000
     atom:    4    charge:    3.9515    magn:    1.1285    constr:    0.0000
     atom:    5    charge:    3.9591    magn:    1.1201    constr:    0.0000
     atom:    6    charge:    3.9522    magn:    1.1278    constr:    0.0000
     atom:    7    charge:    3.9686    magn:    1.1105    constr:    0.0000
     atom:    8    charge:    3.9710    magn:    1.1092    constr:    0.0000
     atom:    9    charge:    3.9631    magn:    1.1166    constr:    0.0000
     atom:   10    charge:    3.9705    magn:    1.1124    constr:    0.0000
     atom:   11    charge:    3.9741    magn:    1.1097    constr:    0.0000
     atom:   12    charge:    3.9708    magn:    1.1122    constr:    0.0000
     atom:   13    charge:    3.9729    magn:    1.1090    constr:    0.0000
     atom:   14    charge:    3.9730    magn:    1.1090    constr:    0.0000
     atom:   15    charge:    3.9729    magn:    1.1087    constr:    0.0000
     atom:   16    charge:    3.9748    magn:    1.1060    constr:    0.0000
     atom:   17    charge:    3.9763    magn:    1.1049    constr:    0.0000
     atom:   18    charge:    3.9750    magn:    1.1054    constr:    0.0000
     atom:   19    charge:    3.9731    magn:    1.1074    constr:    0.0000
     atom:   20    charge:    3.9731    magn:    1.1075    constr:    0.0000
     atom:   21    charge:    3.9732    magn:    1.1074    constr:    0.0000
     atom:   22    charge:    3.9722    magn:    1.1093    constr:    0.0000
     atom:   23    charge:    3.9722    magn:    1.1091    constr:    0.0000
     atom:   24    charge:    3.9723    magn:    1.1092    constr:    0.0000
     atom:   25    charge:    3.9686    magn:    1.1118    constr:    0.0000
     atom:   26    charge:    3.9685    magn:    1.1118    constr:    0.0000
     atom:   27    charge:    3.9684    magn:    1.1109    constr:    0.0000
     atom:   28    charge:    3.9609    magn:    1.1162    constr:    0.0000
     atom:   29    charge:    3.9606    magn:    1.1162    constr:    0.0000
     atom:   30    charge:    3.9609    magn:    1.1162    constr:    0.0000
     atom:   31    charge:    3.9503    magn:    1.1294    constr:    0.0000
     atom:   32    charge:    3.9503    magn:    1.1294    constr:    0.0000
     atom:   33    charge:    3.9504    magn:    1.1294    constr:    0.0000
     atom:   34    charge:    3.9263    magn:    1.1533    constr:    0.0000
     atom:   35    charge:    3.9268    magn:    1.1526    constr:    0.0000
     atom:   36    charge:    3.9265    magn:    1.1532    constr:    0.0000
     atom:   37    charge:    0.5892    magn:    0.4026    constr:    0.0000

     total cpu time spent up to now is      258.3 secs

     total energy              =   -3630.99357209 Ry
     Harris-Foulkes estimate   =   -3633.07555524 Ry
     estimated scf accuracy    <      16.29514569 Ry

     total magnetization       =    37.88 Bohr mag/cell
     absolute magnetization    =    37.89 Bohr mag/cell

     iteration #  2     ecut=    44.10 Ry     beta=0.10
     Davidson diagonalization with overlap
     ethr =  4.48E-03,  avg # of iterations =  3.3

     negative rho (up, down):  8.579E-04 5.099E-04
 
     Adding external electric field

     Computed dipole along edir(3) : 
        Dipole                0.6690 Ry au,          1.7005 Debye
        Dipole field          0.0007 Ry au
 
        Potential amp.       -0.0987 Ry
        Total length         73.6798 bohr
 
 
     Adding external electric field

     Computed dipole along edir(3) : 
        Dipole                0.6690 Ry au,          1.7005 Debye
        Dipole field          0.0007 Ry au
 
        Potential amp.       -0.0987 Ry
        Total length         73.6798 bohr
 
 
     Magnetic moment per site:
     atom:    1    charge:    3.9527    magn:    1.1242    constr:    0.0000
     atom:    2    charge:    3.9555    magn:    1.1209    constr:    0.0000
     atom:    3    charge:    3.9469    magn:    1.1302    constr:    0.0000
     atom:    4    charge:    3.9638    magn:    1.1075    constr:    0.0000
     atom:    5    charge:    3.9678    magn:    1.1010    constr:    0.0000
     atom:    6    charge:    3.9643    magn:    1.1069    constr:    0.0000
     atom:    7    charge:    3.9667    magn:    1.0982    constr:    0.0000
     atom:    8    charge:    3.9689    magn:    1.0962    constr:    0.0000
     atom:    9    charge:    3.9654    magn:    1.1025    constr:    0.0000
     atom:   10    charge:    3.9627    magn:    1.1060    constr:    0.0000
     atom:   11    charge:    3.9615    magn:    1.1072    constr:    0.0000
     atom:   12    charge:    3.9625    magn:    1.1062    constr:    0.0000
     atom:   13    charge:    3.9526    magn:    1.1128    constr:    0.0000
     atom:   14    charge:    3.9525    magn:    1.1130    constr:    0.0000
     atom:   15    charge:    3.9536    magn:    1.1116    constr:    0.0000
     atom:   16    charge:    3.9515    magn:    1.1117    constr:    0.0000
     atom:   17    charge:    3.9513    magn:    1.1118    constr:    0.0000
     atom:   18    charge:    3.9514    magn:    1.1113    constr:    0.0000
     atom:   19    charge:    3.9537    magn:    1.1104    constr:    0.0000
     atom:   20    charge:    3.9536    magn:    1.1105    constr:    0.0000
     atom:   21    charge:    3.9541    magn:    1.1100    constr:    0.0000
     atom:   22    charge:    3.9638    magn:    1.1029    constr:    0.0000
     atom:   23    charge:    3.9637    magn:    1.1027    constr:    0.0000
     atom:   24    charge:    3.9637    magn:    1.1029    constr:    0.0000
     atom:   25    charge:    3.9724    magn:    1.0954    constr:    0.0000
     atom:   26    charge:    3.9724    magn:    1.0954    constr:    0.0000
     atom:   27    charge:    3.9721    magn:    1.0944    constr:    0.0000
     atom:   28    charge:    3.9718    magn:    1.0951    constr:    0.0000
     atom:   29    charge:    3.9715    magn:    1.0952    constr:    0.0000
     atom:   30    charge:    3.9717    magn:    1.0952    constr:    0.0000
     atom:   31    charge:    3.9664    magn:    1.1061    constr:    0.0000
     atom:   32    charge:    3.9664    magn:    1.1061    constr:    0.0000
     atom:   33    charge:    3.9665    magn:    1.1061    constr:    0.0000
     atom:   34    charge:    3.9471    magn:    1.1287    constr:    0.0000
     atom:   35    charge:    3.9475    magn:    1.1279    constr:    0.0000
     atom:   36    charge:    3.9473    magn:    1.1285    constr:    0.0000
     atom:   37    charge:    0.5924    magn:    0.3983    constr:    0.0000

     total cpu time spent up to now is      384.1 secs

     total energy              =   -3630.95914522 Ry
     Harris-Foulkes estimate   =   -3636.23069477 Ry
     estimated scf accuracy    <     122.51298559 Ry

     total magnetization       =    43.92 Bohr mag/cell
     absolute magnetization    =    43.95 Bohr mag/cell

     iteration #  3     ecut=    44.10 Ry     beta=0.10
     Davidson diagonalization with overlap
     ethr =  4.48E-03,  avg # of iterations =  2.6

     negative rho (up, down):  8.586E-04 5.838E-04
 
     Adding external electric field

     Computed dipole along edir(3) : 
        Dipole               -0.4523 Ry au,         -1.1497 Debye
        Dipole field         -0.0005 Ry au
 
        Potential amp.        0.0667 Ry
        Total length         73.6798 bohr
 
 
     Adding external electric field

     Computed dipole along edir(3) : 
        Dipole               -0.4523 Ry au,         -1.1497 Debye
        Dipole field         -0.0005 Ry au
 
        Potential amp.        0.0667 Ry
        Total length         73.6798 bohr
 
 
     Magnetic moment per site:
     atom:    1    charge:    3.9612    magn:    1.1121    constr:    0.0000
     atom:    2    charge:    3.9637    magn:    1.1090    constr:    0.0000
     atom:    3    charge:    3.9561    magn:    1.1178    constr:    0.0000
     atom:    4    charge:    3.9702    magn:    1.0962    constr:    0.0000
     atom:    5    charge:    3.9729    magn:    1.0904    constr:    0.0000
     atom:    6    charge:    3.9706    magn:    1.0956    constr:    0.0000
     atom:    7    charge:    3.9693    magn:    1.0891    constr:    0.0000
     atom:    8    charge:    3.9710    magn:    1.0873    constr:    0.0000
     atom:    9    charge:    3.9697    magn:    1.0925    constr:    0.0000
     atom:   10    charge:    3.9654    magn:    1.0971    constr:    0.0000
     atom:   11    charge:    3.9638    magn:    1.0987    constr:    0.0000
     atom:   12    charge:    3.9652    magn:    1.0974    constr:    0.0000
     atom:   13    charge:    3.9540    magn:    1.1053    constr:    0.0000
     atom:   14    charge:    3.9539    magn:    1.1055    constr:    0.0000
     atom:   15    charge:    3.9550    magn:    1.1039    constr:    0.0000
     atom:   16    charge:    3.9515    magn:    1.1054    constr:    0.0000
     atom:   17    charge:    3.9512    magn:    1.1056    constr:    0.0000
     atom:   18    charge:    3.9514    magn:    1.1049    constr:    0.0000
     atom:   19    charge:    3.9519    magn:    1.1056    constr:    0.0000
     atom:   20    charge:    3.9518    magn:    1.1057    constr:    0.0000
     atom:   21    charge:    3.9523    magn:    1.1053    constr:    0.0000
     atom:   22    charge:    3.9590    magn:    1.1005    constr:    0.0000
     atom:   23    charge:    3.9589    magn:    1.1004    constr:    0.0000
     atom:   24    charge:    3.9590    magn:    1.1005    constr:    0.0000
     atom:   25    charge:    3.9659    magn:    1.0943    constr:    0.0000
     atom:   26    charge:    3.9658    magn:    1.0943    constr:    0.0000
     atom:   27    charge:    3.9655    magn:    1.0932    constr:    0.0000
     atom:   28    charge:    3.9651    magn:    1.0946    constr:    0.0000
     atom:   29    charge:    3.9649    magn:    1.0947    constr:    0.0000
     atom:   30    charge:    3.9650    magn:    1.0947    constr:    0.0000
     atom:   31    charge:    3.9643    magn:    1.1023    constr:    0.0000
     atom:   32    charge:    3.9643    magn:    1.1023    constr:    0.0000
     atom:   33    charge:    3.9643    magn:    1.1025    constr:    0.0000
     atom:   34    charge:    3.9531    magn:    1.1189    constr:    0.0000
     atom:   35    charge:    3.9535    magn:    1.1182    constr:    0.0000
     atom:   36    charge:    3.9532    magn:    1.1188    constr:    0.0000
     atom:   37    charge:    0.5940    magn:    0.3963    constr:    0.0000

     total cpu time spent up to now is      504.6 secs

     total energy              =   -3632.02677889 Ry
     Harris-Foulkes estimate   =   -3634.12949311 Ry
     estimated scf accuracy    <     127.60753876 Ry

     total magnetization       =    39.64 Bohr mag/cell
     absolute magnetization    =    39.69 Bohr mag/cell

     iteration #  4     ecut=    44.10 Ry     beta=0.10
     Davidson diagonalization with overlap
     ethr =  4.48E-03,  avg # of iterations =  1.0

     negative rho (up, down):  8.628E-04 6.392E-04
 
     Adding external electric field

     Computed dipole along edir(3) : 
        Dipole               -0.0283 Ry au,         -0.0719 Debye
        Dipole field         -0.0000 Ry au
 
        Potential amp.        0.0042 Ry
        Total length         73.6798 bohr
 
 
     Adding external electric field

     Computed dipole along edir(3) : 
        Dipole               -0.0283 Ry au,         -0.0719 Debye
        Dipole field         -0.0000 Ry au
 
        Potential amp.        0.0042 Ry
        Total length         73.6798 bohr
 
 
     Magnetic moment per site:
     atom:    1    charge:    3.9685    magn:    1.0938    constr:    0.0000
     atom:    2    charge:    3.9688    magn:    1.0921    constr:    0.0000
     atom:    3    charge:    3.9682    magn:    1.0957    constr:    0.0000
     atom:    4    charge:    3.9655    magn:    1.0867    constr:    0.0000
     atom:    5    charge:    3.9630    magn:    1.0838    constr:    0.0000
     atom:    6    charge:    3.9652    magn:    1.0867    constr:    0.0000
     atom:    7    charge:    3.9639    magn:    1.0760    constr:    0.0000
     atom:    8    charge:    3.9661    magn:    1.0723    constr:    0.0000
     atom:    9    charge:    3.9640    magn:    1.0828    constr:    0.0000
     atom:   10    charge:    3.9637    magn:    1.0836    constr:    0.0000
     atom:   11    charge:    3.9632    magn:    1.0846    constr:    0.0000
     atom:   12    charge:    3.9635    magn:    1.0839    constr:    0.0000
     atom:   13    charge:    3.9592    magn:    1.0869    constr:    0.0000
     atom:   14    charge:    3.9591    magn:    1.0871    constr:    0.0000
     atom:   15    charge:    3.9597    magn:    1.0857    constr:    0.0000
     atom:   16    charge:    3.9582    magn:    1.0856    constr:    0.0000
     atom:   17    charge:    3.9580    magn:    1.0860    constr:    0.0000
     atom:   18    charge:    3.9583    magn:    1.0849    constr:    0.0000
     atom:   19    charge:    3.9570    magn:    1.0871    constr:    0.0000
     atom:   20    charge:    3.9570    magn:    1.0872    constr:    0.0000
     atom:   21    charge:    3.9573    magn:    1.0869    constr:    0.0000
     atom:   22    charge:    3.9582    magn:    1.0865    constr:    0.0000
     atom:   23    charge:    3.9581    magn:    1.0863    constr:    0.0000
     atom:   24    charge:    3.9582    magn:    1.0864    constr:    0.0000
     atom:   25    charge:    3.9597    magn:    1.0838    constr:    0.0000
     atom:   26    charge:    3.9597    magn:    1.0837    constr:    0.0000
     atom:   27    charge:    3.9592    magn:    1.0826    constr:    0.0000
     atom:   28    charge:    3.9599    magn:    1.0840    constr:    0.0000
     atom:   29    charge:    3.9600    magn:    1.0839    constr:    0.0000
     atom:   30    charge:    3.9599    magn:    1.0840    constr:    0.0000
     atom:   31    charge:    3.9674    magn:    1.0855    constr:    0.0000
     atom:   32    charge:    3.9675    magn:    1.0855    constr:    0.0000
     atom:   33    charge:    3.9674    magn:    1.0857    constr:    0.0000
     atom:   34    charge:    3.9687    magn:    1.0935    constr:    0.0000
     atom:   35    charge:    3.9689    magn:    1.0928    constr:    0.0000
     atom:   36    charge:    3.9688    magn:    1.0934    constr:    0.0000
     atom:   37    charge:    0.5958    magn:    0.3908    constr:    0.0000

     total cpu time spent up to now is      617.0 secs

     total energy              =   -3632.86003732 Ry
     Harris-Foulkes estimate   =   -3633.37011334 Ry
     estimated scf accuracy    <      44.35167341 Ry

     total magnetization       =    37.84 Bohr mag/cell
     absolute magnetization    =    37.88 Bohr mag/cell

     iteration #  5     ecut=    44.10 Ry     beta=0.10
     Davidson diagonalization with overlap
     ethr =  4.48E-03,  avg # of iterations =  1.0

     negative rho (up, down):  8.514E-04 6.040E-04
 
     Adding external electric field

     Computed dipole along edir(3) : 
        Dipole               -0.1923 Ry au,         -0.4887 Debye
        Dipole field         -0.0002 Ry au
 
        Potential amp.        0.0284 Ry
        Total length         73.6798 bohr
 
 
     Adding external electric field

     Computed dipole along edir(3) : 
        Dipole               -0.1923 Ry au,         -0.4887 Debye
        Dipole field         -0.0002 Ry au
 
        Potential amp.        0.0284 Ry
        Total length         73.6798 bohr
 
 
     Magnetic moment per site:
     atom:    1    charge:    3.9947    magn:    1.0125    constr:    0.0000
     atom:    2    charge:    3.9927    magn:    1.0122    constr:    0.0000
     atom:    3    charge:    4.0041    magn:    1.0066    constr:    0.0000
     atom:    4    charge:    3.9759    magn:    1.0172    constr:    0.0000
     atom:    5    charge:    3.9741    magn:    1.0104    constr:    0.0000
     atom:    6    charge:    3.9765    magn:    1.0166    constr:    0.0000
     atom:    7    charge:    3.9581    magn:    1.0066    constr:    0.0000
     atom:    8    charge:    3.9590    magn:    0.9979    constr:    0.0000
     atom:    9    charge:    3.9621    magn:    1.0214    constr:    0.0000
     atom:   10    charge:    3.9510    magn:    1.0301    constr:    0.0000
     atom:   11    charge:    3.9555    magn:    1.0274    constr:    0.0000
     atom:   12    charge:    3.9515    magn:    1.0299    constr:    0.0000
     atom:   13    charge:    3.9596    magn:    1.0241    constr:    0.0000
     atom:   14    charge:    3.9600    magn:    1.0240    constr:    0.0000
     atom:   15    charge:    3.9583    magn:    1.0241    constr:    0.0000
     atom:   16    charge:    3.9618    magn:    1.0197    constr:    0.0000
     atom:   17    charge:    3.9618    magn:    1.0205    constr:    0.0000
     atom:   18    charge:    3.9621    magn:    1.0184    constr:    0.0000
     atom:   19    charge:    3.9608    magn:    1.0218    constr:    0.0000
     atom:   20    charge:    3.9607    magn:    1.0219    constr:    0.0000
     atom:   21    charge:    3.9605    magn:    1.0217    constr:    0.0000
     atom:   22    charge:    3.9600    magn:    1.0225    constr:    0.0000
     atom:   23    charge:    3.9601    magn:    1.0220    constr:    0.0000
     atom:   24    charge:    3.9599    magn:    1.0225    constr:    0.0000
     atom:   25    charge:    3.9582    magn:    1.0215    constr:    0.0000
     atom:   26    charge:    3.9581    magn:    1.0214    constr:    0.0000
     atom:   27    charge:    3.9580    magn:    1.0190    constr:    0.0000
     atom:   28    charge:    3.9694    magn:    1.0136    constr:    0.0000
     atom:   29    charge:    3.9691    magn:    1.0138    constr:    0.0000
     atom:   30    charge:    3.9694    magn:    1.0138    constr:    0.0000
     atom:   31    charge:    3.9712    magn:    1.0199    constr:    0.0000
     atom:   32    charge:    3.9711    magn:    1.0201    constr:    0.0000
     atom:   33    charge:    3.9717    magn:    1.0199    constr:    0.0000
     atom:   34    charge:    3.9961    magn:    1.0100    constr:    0.0000
     atom:   35    charge:    3.9956    magn:    1.0097    constr:    0.0000
     atom:   36    charge:    3.9959    magn:    1.0101    constr:    0.0000
     atom:   37    charge:    0.6030    magn:    0.3671    constr:    0.0000

     total cpu time spent up to now is      729.2 secs

     total energy              =   -3633.15574001 Ry
     Harris-Foulkes estimate   =   -3633.10945111 Ry
     estimated scf accuracy    <       3.82926952 Ry

     total magnetization       =    37.59 Bohr mag/cell
     absolute magnetization    =    37.67 Bohr mag/cell

     iteration #  6     ecut=    44.10 Ry     beta=0.10
     Davidson diagonalization with overlap
     ethr =  1.05E-03,  avg # of iterations =  2.9

     negative rho (up, down):  8.360E-04 5.238E-04
 
     Adding external electric field

     Computed dipole along edir(3) : 
        Dipole                0.0238 Ry au,          0.0605 Debye
        Dipole field          0.0000 Ry au
 
        Potential amp.       -0.0035 Ry
        Total length         73.6798 bohr
 
 
     Adding external electric field

     Computed dipole along edir(3) : 
        Dipole                0.0238 Ry au,          0.0605 Debye
        Dipole field          0.0000 Ry au
 
        Potential amp.       -0.0035 Ry
        Total length         73.6798 bohr
 
 
     Magnetic moment per site:
     atom:    1    charge:    4.0064    magn:    0.9075    constr:    0.0000
     atom:    2    charge:    4.0056    magn:    0.9048    constr:    0.0000
     atom:    3    charge:    4.0101    magn:    0.9080    constr:    0.0000
     atom:    4    charge:    3.9924    magn:    0.9041    constr:    0.0000
     atom:    5    charge:    3.9828    magn:    0.8968    constr:    0.0000
     atom:    6    charge:    3.9922    magn:    0.9041    constr:    0.0000
     atom:    7    charge:    3.9623    magn:    0.8837    constr:    0.0000
     atom:    8    charge:    3.9599    magn:    0.8688    constr:    0.0000
     atom:    9    charge:    3.9776    magn:    0.9055    constr:    0.0000
     atom:   10    charge:    3.9574    magn:    0.9216    constr:    0.0000
     atom:   11    charge:    3.9611    magn:    0.9193    constr:    0.0000
     atom:   12    charge:    3.9577    magn:    0.9216    constr:    0.0000
     atom:   13    charge:    3.9642    magn:    0.9171    constr:    0.0000
     atom:   14    charge:    3.9642    magn:    0.9175    constr:    0.0000
     atom:   15    charge:    3.9643    magn:    0.9154    constr:    0.0000
     atom:   16    charge:    3.9657    magn:    0.9115    constr:    0.0000
     atom:   17    charge:    3.9646    magn:    0.9142    constr:    0.0000
     atom:   18    charge:    3.9658    magn:    0.9096    constr:    0.0000
     atom:   19    charge:    3.9621    magn:    0.9171    constr:    0.0000
     atom:   20    charge:    3.9620    magn:    0.9173    constr:    0.0000
     atom:   21    charge:    3.9624    magn:    0.9164    constr:    0.0000
     atom:   22    charge:    3.9612    magn:    0.9175    constr:    0.0000
     atom:   23    charge:    3.9609    magn:    0.9172    constr:    0.0000
     atom:   24    charge:    3.9611    magn:    0.9176    constr:    0.0000
     atom:   25    charge:    3.9555    magn:    0.9189    constr:    0.0000
     atom:   26    charge:    3.9555    magn:    0.9187    constr:    0.0000
     atom:   27    charge:    3.9550    magn:    0.9151    constr:    0.0000
     atom:   28    charge:    3.9714    magn:    0.9086    constr:    0.0000
     atom:   29    charge:    3.9719    magn:    0.9081    constr:    0.0000
     atom:   30    charge:    3.9715    magn:    0.9086    constr:    0.0000
     atom:   31    charge:    3.9897    magn:    0.9039    constr:    0.0000
     atom:   32    charge:    3.9898    magn:    0.9041    constr:    0.0000
     atom:   33    charge:    3.9896    magn:    0.9047    constr:    0.0000
     atom:   34    charge:    4.0211    magn:    0.8927    constr:    0.0000
     atom:   35    charge:    4.0217    magn:    0.8911    constr:    0.0000
     atom:   36    charge:    4.0212    magn:    0.8926    constr:    0.0000
     atom:   37    charge:    0.6159    magn:    0.3282    constr:    0.0000

     total cpu time spent up to now is      849.1 secs

     total energy              =   -3633.75620063 Ry
     Harris-Foulkes estimate   =   -3633.47830712 Ry
     estimated scf accuracy    <      12.44158889 Ry

     total magnetization       =    37.63 Bohr mag/cell
     absolute magnetization    =    37.82 Bohr mag/cell

     iteration #  7     ecut=    44.10 Ry     beta=0.10
     Davidson diagonalization with overlap
     ethr =  1.05E-03,  avg # of iterations =  7.9

     negative rho (up, down):  8.303E-04 5.380E-04
 
     Adding external electric field

     Computed dipole along edir(3) : 
        Dipole               -0.1269 Ry au,         -0.3227 Debye
        Dipole field         -0.0001 Ry au
 
        Potential amp.        0.0187 Ry
        Total length         73.6798 bohr
 
 
     Adding external electric field

     Computed dipole along edir(3) : 
        Dipole               -0.1269 Ry au,         -0.3227 Debye
        Dipole field         -0.0001 Ry au
 
        Potential amp.        0.0187 Ry
        Total length         73.6798 bohr
 
 
     Magnetic moment per site:
     atom:    1    charge:    4.0052    magn:    0.9020    constr:    0.0000
     atom:    2    charge:    4.0036    magn:    0.8997    constr:    0.0000
     atom:    3    charge:    4.0109    magn:    0.9012    constr:    0.0000
     atom:    4    charge:    3.9856    magn:    0.9031    constr:    0.0000
     atom:    5    charge:    3.9757    magn:    0.8954    constr:    0.0000
     atom:    6    charge:    3.9851    magn:    0.9033    constr:    0.0000
     atom:    7    charge:    3.9626    magn:    0.8760    constr:    0.0000
     atom:    8    charge:    3.9607    magn:    0.8604    constr:    0.0000
     atom:    9    charge:    3.9761    magn:    0.8997    constr:    0.0000
     atom:   10    charge:    3.9623    magn:    0.9116    constr:    0.0000
     atom:   11    charge:    3.9638    magn:    0.9107    constr:    0.0000
     atom:   12    charge:    3.9624    magn:    0.9117    constr:    0.0000
     atom:   13    charge:    3.9636    magn:    0.9110    constr:    0.0000
     atom:   14    charge:    3.9636    magn:    0.9113    constr:    0.0000
     atom:   15    charge:    3.9637    magn:    0.9093    constr:    0.0000
     atom:   16    charge:    3.9647    magn:    0.9053    constr:    0.0000
     atom:   17    charge:    3.9642    magn:    0.9076    constr:    0.0000
     atom:   18    charge:    3.9649    magn:    0.9033    constr:    0.0000
     atom:   19    charge:    3.9627    magn:    0.9099    constr:    0.0000
     atom:   20    charge:    3.9627    magn:    0.9101    constr:    0.0000
     atom:   21    charge:    3.9629    magn:    0.9093    constr:    0.0000
     atom:   22    charge:    3.9626    magn:    0.9095    constr:    0.0000
     atom:   23    charge:    3.9626    magn:    0.9090    constr:    0.0000
     atom:   24    charge:    3.9626    magn:    0.9095    constr:    0.0000
     atom:   25    charge:    3.9596    magn:    0.9092    constr:    0.0000
     atom:   26    charge:    3.9596    magn:    0.9089    constr:    0.0000
     atom:   27    charge:    3.9589    magn:    0.9055    constr:    0.0000
     atom:   28    charge:    3.9724    magn:    0.9008    constr:    0.0000
     atom:   29    charge:    3.9729    magn:    0.9003    constr:    0.0000
     atom:   30    charge:    3.9725    magn:    0.9009    constr:    0.0000
     atom:   31    charge:    3.9889    magn:    0.8981    constr:    0.0000
     atom:   32    charge:    3.9889    magn:    0.8983    constr:    0.0000
     atom:   33    charge:    3.9886    magn:    0.8990    constr:    0.0000
     atom:   34    charge:    4.0085    magn:    0.8971    constr:    0.0000
     atom:   35    charge:    4.0085    magn:    0.8958    constr:    0.0000
     atom:   36    charge:    4.0085    magn:    0.8970    constr:    0.0000
     atom:   37    charge:    0.6163    magn:    0.3251    constr:    0.0000

     total cpu time spent up to now is     1001.2 secs

     total energy              =   -3633.70792723 Ry
     Harris-Foulkes estimate   =   -3634.00128752 Ry
     estimated scf accuracy    <      24.36045267 Ry

     total magnetization       =    36.53 Bohr mag/cell
     absolute magnetization    =    37.13 Bohr mag/cell

     iteration #  8     ecut=    44.10 Ry     beta=0.10
     Davidson diagonalization with overlap
     ethr =  1.05E-03,  avg # of iterations =  1.0

     negative rho (up, down):  8.266E-04 5.597E-04
 
     Adding external electric field

     Computed dipole along edir(3) : 
        Dipole               -0.0982 Ry au,         -0.2495 Debye
        Dipole field         -0.0001 Ry au
 
        Potential amp.        0.0145 Ry
        Total length         73.6798 bohr
 
 
     Adding external electric field

     Computed dipole along edir(3) : 
        Dipole               -0.0982 Ry au,         -0.2495 Debye
        Dipole field         -0.0001 Ry au
 
        Potential amp.        0.0145 Ry
        Total length         73.6798 bohr
 
 
     Magnetic moment per site:
     atom:    1    charge:    3.9958    magn:    0.8960    constr:    0.0000
     atom:    2    charge:    3.9950    magn:    0.8927    constr:    0.0000
     atom:    3    charge:    4.0016    magn:    0.8956    constr:    0.0000
     atom:    4    charge:    3.9806    magn:    0.8943    constr:    0.0000
     atom:    5    charge:    3.9752    magn:    0.8824    constr:    0.0000
     atom:    6    charge:    3.9811    magn:    0.8938    constr:    0.0000
     atom:    7    charge:    3.9642    magn:    0.8601    constr:    0.0000
     atom:    8    charge:    3.9627    magn:    0.8434    constr:    0.0000
     atom:    9    charge:    3.9735    magn:    0.8885    constr:    0.0000
     atom:   10    charge:    3.9651    magn:    0.8974    constr:    0.0000
     atom:   11    charge:    3.9666    magn:    0.8964    constr:    0.0000
     atom:   12    charge:    3.9653    magn:    0.8975    constr:    0.0000
     atom:   13    charge:    3.9640    magn:    0.8983    constr:    0.0000
     atom:   14    charge:    3.9643    magn:    0.8984    constr:    0.0000
     atom:   15    charge:    3.9631    magn:    0.8974    constr:    0.0000
     atom:   16    charge:    3.9634    magn:    0.8937    constr:    0.0000
     atom:   17    charge:    3.9644    magn:    0.8948    constr:    0.0000
     atom:   18    charge:    3.9638    magn:    0.8914    constr:    0.0000
     atom:   19    charge:    3.9628    magn:    0.8975    constr:    0.0000
     atom:   20    charge:    3.9628    magn:    0.8976    constr:    0.0000
     atom:   21    charge:    3.9625    magn:    0.8971    constr:    0.0000
     atom:   22    charge:    3.9630    magn:    0.8969    constr:    0.0000
     atom:   23    charge:    3.9634    magn:    0.8961    constr:    0.0000
     atom:   24    charge:    3.9630    magn:    0.8969    constr:    0.0000
     atom:   25    charge:    3.9640    magn:    0.8937    constr:    0.0000
     atom:   26    charge:    3.9640    magn:    0.8935    constr:    0.0000
     atom:   27    charge:    3.9634    magn:    0.8901    constr:    0.0000
     atom:   28    charge:    3.9710    magn:    0.8889    constr:    0.0000
     atom:   29    charge:    3.9712    magn:    0.8886    constr:    0.0000
     atom:   30    charge:    3.9710    magn:    0.8891    constr:    0.0000
     atom:   31    charge:    3.9786    magn:    0.8935    constr:    0.0000
     atom:   32    charge:    3.9786    magn:    0.8937    constr:    0.0000
     atom:   33    charge:    3.9786    magn:    0.8944    constr:    0.0000
     atom:   34    charge:    4.0010    magn:    0.8896    constr:    0.0000
     atom:   35    charge:    4.0006    magn:    0.8887    constr:    0.0000
     atom:   36    charge:    4.0008    magn:    0.8897    constr:    0.0000
     atom:   37    charge:    0.6158    magn:    0.3188    constr:    0.0000

     total cpu time spent up to now is     1113.7 secs

     total energy              =   -3633.77128718 Ry
     Harris-Foulkes estimate   =   -3633.82580813 Ry
     estimated scf accuracy    <       3.44323981 Ry

     total magnetization       =    36.23 Bohr mag/cell
     absolute magnetization    =    36.87 Bohr mag/cell

     iteration #  9     ecut=    44.10 Ry     beta=0.10
     Davidson diagonalization with overlap
     ethr =  9.46E-04,  avg # of iterations =  1.0

     negative rho (up, down):  8.097E-04 5.292E-04
 
     Adding external electric field

     Computed dipole along edir(3) : 
        Dipole               -0.0762 Ry au,         -0.1937 Debye
        Dipole field         -0.0001 Ry au
 
        Potential amp.        0.0112 Ry
        Total length         73.6798 bohr
 
 
     Adding external electric field

     Computed dipole along edir(3) : 
        Dipole               -0.0762 Ry au,         -0.1937 Debye
        Dipole field         -0.0001 Ry au
 
        Potential amp.        0.0112 Ry
        Total length         73.6798 bohr
 
 
     Magnetic moment per site:
     atom:    1    charge:    3.9818    magn:    0.8099    constr:    0.0000
     atom:    2    charge:    3.9796    magn:    0.8061    constr:    0.0000
     atom:    3    charge:    3.9869    magn:    0.8106    constr:    0.0000
     atom:    4    charge:    3.9723    magn:    0.8085    constr:    0.0000
     atom:    5    charge:    3.9708    magn:    0.7873    constr:    0.0000
     atom:    6    charge:    3.9722    magn:    0.8082    constr:    0.0000
     atom:    7    charge:    3.9626    magn:    0.7500    constr:    0.0000
     atom:    8    charge:    3.9613    magn:    0.7251    constr:    0.0000
     atom:    9    charge:    3.9669    magn:    0.7978    constr:    0.0000
     atom:   10    charge:    3.9639    magn:    0.8082    constr:    0.0000
     atom:   11    charge:    3.9660    magn:    0.8058    constr:    0.0000
     atom:   12    charge:    3.9634    magn:    0.8086    constr:    0.0000
     atom:   13    charge:    3.9648    magn:    0.8066    constr:    0.0000
     atom:   14    charge:    3.9645    magn:    0.8069    constr:    0.0000
     atom:   15    charge:    3.9659    magn:    0.8045    constr:    0.0000
     atom:   16    charge:    3.9653    magn:    0.8000    constr:    0.0000
     atom:   17    charge:    3.9652    magn:    0.8025    constr:    0.0000
     atom:   18    charge:    3.9654    magn:    0.7974    constr:    0.0000
     atom:   19    charge:    3.9634    magn:    0.8064    constr:    0.0000
     atom:   20    charge:    3.9631    magn:    0.8070    constr:    0.0000
     atom:   21    charge:    3.9641    magn:    0.8045    constr:    0.0000
     atom:   22    charge:    3.9683    magn:    0.8019    constr:    0.0000
     atom:   23    charge:    3.9670    magn:    0.8023    constr:    0.0000
     atom:   24    charge:    3.9680    magn:    0.8020    constr:    0.0000
     atom:   25    charge:    3.9622    magn:    0.8045    constr:    0.0000
     atom:   26    charge:    3.9621    magn:    0.8043    constr:    0.0000
     atom:   27    charge:    3.9626    magn:    0.8008    constr:    0.0000
     atom:   28    charge:    3.9637    magn:    0.8006    constr:    0.0000
     atom:   29    charge:    3.9632    magn:    0.8004    constr:    0.0000
     atom:   30    charge:    3.9636    magn:    0.8009    constr:    0.0000
     atom:   31    charge:    3.9688    magn:    0.8074    constr:    0.0000
     atom:   32    charge:    3.9688    magn:    0.8077    constr:    0.0000
     atom:   33    charge:    3.9691    magn:    0.8085    constr:    0.0000
     atom:   34    charge:    3.9782    magn:    0.8094    constr:    0.0000
     atom:   35    charge:    3.9788    magn:    0.8076    constr:    0.0000
     atom:   36    charge:    3.9784    magn:    0.8092    constr:    0.0000
     atom:   37    charge:    0.6144    magn:    0.2752    constr:    0.0000

     total cpu time spent up to now is     1226.3 secs

     total energy              =   -3634.08178392 Ry
     Harris-Foulkes estimate   =   -3633.82329456 Ry
     estimated scf accuracy    <       1.06650788 Ry

     total magnetization       =    35.53 Bohr mag/cell
     absolute magnetization    =    36.24 Bohr mag/cell

     iteration # 10     ecut=    44.10 Ry     beta=0.10
     Davidson diagonalization with overlap
     ethr =  2.93E-04,  avg # of iterations =  2.1

     negative rho (up, down):  8.377E-04 6.257E-04
 
     Adding external electric field

     Computed dipole along edir(3) : 
        Dipole                0.0132 Ry au,          0.0335 Debye
        Dipole field          0.0000 Ry au
 
        Potential amp.       -0.0019 Ry
        Total length         73.6798 bohr
 
 
     Adding external electric field

     Computed dipole along edir(3) : 
        Dipole                0.0132 Ry au,          0.0335 Debye
        Dipole field          0.0000 Ry au
 
        Potential amp.       -0.0019 Ry
        Total length         73.6798 bohr
 
 
     Magnetic moment per site:
     atom:    1    charge:    3.9892    magn:    0.6751    constr:    0.0000
     atom:    2    charge:    3.9890    magn:    0.6677    constr:    0.0000
     atom:    3    charge:    3.9893    magn:    0.6811    constr:    0.0000
     atom:    4    charge:    3.9721    magn:    0.6833    constr:    0.0000
     atom:    5    charge:    3.9686    magn:    0.6532    constr:    0.0000
     atom:    6    charge:    3.9739    magn:    0.6813    constr:    0.0000
     atom:    7    charge:    3.9592    magn:    0.5979    constr:    0.0000
     atom:    8    charge:    3.9565    magn:    0.5618    constr:    0.0000
     atom:    9    charge:    3.9696    magn:    0.6654    constr:    0.0000
     atom:   10    charge:    3.9643    magn:    0.6821    constr:    0.0000
     atom:   11    charge:    3.9716    magn:    0.6745    constr:    0.0000
     atom:   12    charge:    3.9657    magn:    0.6807    constr:    0.0000
     atom:   13    charge:    3.9663    magn:    0.6791    constr:    0.0000
     atom:   14    charge:    3.9673    magn:    0.6783    constr:    0.0000
     atom:   15    charge:    3.9640    magn:    0.6792    constr:    0.0000
     atom:   16    charge:    3.9677    magn:    0.6696    constr:    0.0000
     atom:   17    charge:    3.9709    magn:    0.6706    constr:    0.0000
     atom:   18    charge:    3.9685    magn:    0.6656    constr:    0.0000
     atom:   19    charge:    3.9681    magn:    0.6766    constr:    0.0000
     atom:   20    charge:    3.9687    magn:    0.6765    constr:    0.0000
     atom:   21    charge:    3.9659    magn:    0.6758    constr:    0.0000
     atom:   22    charge:    3.9619    magn:    0.6799    constr:    0.0000
     atom:   23    charge:    3.9649    magn:    0.6772    constr:    0.0000
     atom:   24    charge:    3.9625    magn:    0.6793    constr:    0.0000
     atom:   25    charge:    3.9633    magn:    0.6770    constr:    0.0000
     atom:   26    charge:    3.9636    magn:    0.6764    constr:    0.0000
     atom:   27    charge:    3.9613    magn:    0.6755    constr:    0.0000
     atom:   28    charge:    3.9642    magn:    0.6721    constr:    0.0000
     atom:   29    charge:    3.9663    magn:    0.6696    constr:    0.0000
     atom:   30    charge:    3.9644    magn:    0.6722    constr:    0.0000
     atom:   31    charge:    3.9710    magn:    0.6785    constr:    0.0000
     atom:   32    charge:    3.9711    magn:    0.6786    constr:    0.0000
     atom:   33    charge:    3.9692    magn:    0.6817    constr:    0.0000
     atom:   34    charge:    3.9860    magn:    0.6732    constr:    0.0000
     atom:   35    charge:    3.9868    magn:    0.6708    constr:    0.0000
     atom:   36    charge:    3.9860    magn:    0.6732    constr:    0.0000
     atom:   37    charge:    0.6156    magn:    0.2172    constr:    0.0000

     total cpu time spent up to now is     1343.9 secs

     total energy              =   -3634.34399709 Ry
     Harris-Foulkes estimate   =   -3634.14325537 Ry
     estimated scf accuracy    <       2.83912926 Ry

     total magnetization       =    32.15 Bohr mag/cell
     absolute magnetization    =    33.49 Bohr mag/cell

     iteration # 11     ecut=    44.10 Ry     beta=0.10
     Davidson diagonalization with overlap
     ethr =  2.93E-04,  avg # of iterations =  2.5

     negative rho (up, down):  9.096E-04 8.393E-04
 
     Adding external electric field

     Computed dipole along edir(3) : 
        Dipole                0.0481 Ry au,          0.1222 Debye
        Dipole field          0.0000 Ry au
 
        Potential amp.       -0.0071 Ry
        Total length         73.6798 bohr
 
 
     Adding external electric field

     Computed dipole along edir(3) : 
        Dipole                0.0481 Ry au,          0.1222 Debye
        Dipole field          0.0000 Ry au
 
        Potential amp.       -0.0071 Ry
        Total length         73.6798 bohr
 
 
     Magnetic moment per site:
     atom:    1    charge:    3.9929    magn:    0.5478    constr:    0.0000
     atom:    2    charge:    3.9898    magn:    0.5401    constr:    0.0000
     atom:    3    charge:    3.9937    magn:    0.5560    constr:    0.0000
     atom:    4    charge:    3.9776    magn:    0.5589    constr:    0.0000
     atom:    5    charge:    3.9688    magn:    0.5213    constr:    0.0000
     atom:    6    charge:    3.9768    magn:    0.5586    constr:    0.0000
     atom:    7    charge:    3.9596    magn:    0.4468    constr:    0.0000
     atom:    8    charge:    3.9544    magn:    0.4008    constr:    0.0000
     atom:    9    charge:    3.9722    magn:    0.5376    constr:    0.0000
     atom:   10    charge:    3.9697    magn:    0.5564    constr:    0.0000
     atom:   11    charge:    3.9721    magn:    0.5510    constr:    0.0000
     atom:   12    charge:    3.9689    magn:    0.5562    constr:    0.0000
     atom:   13    charge:    3.9715    magn:    0.5528    constr:    0.0000
     atom:   14    charge:    3.9708    magn:    0.5529    constr:    0.0000
     atom:   15    charge:    3.9699    magn:    0.5522    constr:    0.0000
     atom:   16    charge:    3.9703    magn:    0.5426    constr:    0.0000
     atom:   17    charge:    3.9700    magn:    0.5468    constr:    0.0000
     atom:   18    charge:    3.9698    magn:    0.5390    constr:    0.0000
     atom:   19    charge:    3.9690    magn:    0.5534    constr:    0.0000
     atom:   20    charge:    3.9681    magn:    0.5546    constr:    0.0000
     atom:   21    charge:    3.9703    magn:    0.5488    constr:    0.0000
     atom:   22    charge:    3.9687    magn:    0.5529    constr:    0.0000
     atom:   23    charge:    3.9677    magn:    0.5529    constr:    0.0000
     atom:   24    charge:    3.9684    magn:    0.5528    constr:    0.0000
     atom:   25    charge:    3.9668    magn:    0.5517    constr:    0.0000
     atom:   26    charge:    3.9662    magn:    0.5518    constr:    0.0000
     atom:   27    charge:    3.9681    magn:    0.5489    constr:    0.0000
     atom:   28    charge:    3.9662    magn:    0.5477    constr:    0.0000
     atom:   29    charge:    3.9638    magn:    0.5488    constr:    0.0000
     atom:   30    charge:    3.9657    magn:    0.5485    constr:    0.0000
     atom:   31    charge:    3.9725    magn:    0.5565    constr:    0.0000
     atom:   32    charge:    3.9719    magn:    0.5572    constr:    0.0000
     atom:   33    charge:    3.9739    magn:    0.5575    constr:    0.0000
     atom:   34    charge:    3.9922    magn:    0.5460    constr:    0.0000
     atom:   35    charge:    3.9890    magn:    0.5469    constr:    0.0000
     atom:   36    charge:    3.9914    magn:    0.5466    constr:    0.0000
     atom:   37    charge:    0.6140    magn:    0.1585    constr:    0.0000

     total cpu time spent up to now is     1462.4 secs

     total energy              =   -3634.59618011 Ry
     Harris-Foulkes estimate   =   -3634.45070946 Ry
     estimated scf accuracy    <       1.50871417 Ry

     total magnetization       =    29.23 Bohr mag/cell
     absolute magnetization    =    31.58 Bohr mag/cell

     iteration # 12     ecut=    44.10 Ry     beta=0.10
     Davidson diagonalization with overlap
     ethr =  2.93E-04,  avg # of iterations =  5.1

     negative rho (up, down):  9.139E-04 8.636E-04
 
     Adding external electric field

     Computed dipole along edir(3) : 
        Dipole                0.0202 Ry au,          0.0514 Debye
        Dipole field          0.0000 Ry au
 
        Potential amp.       -0.0030 Ry
        Total length         73.6798 bohr
 
 
     Adding external electric field

     Computed dipole along edir(3) : 
        Dipole                0.0202 Ry au,          0.0514 Debye
        Dipole field          0.0000 Ry au
 
        Potential amp.       -0.0030 Ry
        Total length         73.6798 bohr
 
 
     Magnetic moment per site:
     atom:    1    charge:    3.9837    magn:    0.5106    constr:    0.0000
     atom:    2    charge:    3.9828    magn:    0.5002    constr:    0.0000
     atom:    3    charge:    3.9800    magn:    0.5246    constr:    0.0000
     atom:    4    charge:    3.9707    magn:    0.5240    constr:    0.0000
     atom:    5    charge:    3.9695    magn:    0.4759    constr:    0.0000
     atom:    6    charge:    3.9721    magn:    0.5217    constr:    0.0000
     atom:    7    charge:    3.9625    magn:    0.3932    constr:    0.0000
     atom:    8    charge:    3.9586    magn:    0.3430    constr:    0.0000
     atom:    9    charge:    3.9676    magn:    0.4985    constr:    0.0000
     atom:   10    charge:    3.9702    magn:    0.5158    constr:    0.0000
     atom:   11    charge:    3.9758    magn:    0.5075    constr:    0.0000
     atom:   12    charge:    3.9707    magn:    0.5145    constr:    0.0000
     atom:   13    charge:    3.9724    magn:    0.5113    constr:    0.0000
     atom:   14    charge:    3.9728    magn:    0.5103    constr:    0.0000
     atom:   15    charge:    3.9703    magn:    0.5114    constr:    0.0000
     atom:   16    charge:    3.9692    magn:    0.5019    constr:    0.0000
     atom:   17    charge:    3.9717    magn:    0.5039    constr:    0.0000
     atom:   18    charge:    3.9697    magn:    0.4975    constr:    0.0000
     atom:   19    charge:    3.9696    magn:    0.5125    constr:    0.0000
     atom:   20    charge:    3.9696    magn:    0.5130    constr:    0.0000
     atom:   21    charge:    3.9693    magn:    0.5083    constr:    0.0000
     atom:   22    charge:    3.9726    magn:    0.5098    constr:    0.0000
     atom:   23    charge:    3.9726    magn:    0.5091    constr:    0.0000
     atom:   24    charge:    3.9728    magn:    0.5093    constr:    0.0000
     atom:   25    charge:    3.9691    magn:    0.5095    constr:    0.0000
     atom:   26    charge:    3.9695    magn:    0.5088    constr:    0.0000
     atom:   27    charge:    3.9686    magn:    0.5091    constr:    0.0000
     atom:   28    charge:    3.9635    magn:    0.5092    constr:    0.0000
     atom:   29    charge:    3.9643    magn:    0.5080    constr:    0.0000
     atom:   30    charge:    3.9638    magn:    0.5093    constr:    0.0000
     atom:   31    charge:    3.9688    magn:    0.5195    constr:    0.0000
     atom:   32    charge:    3.9692    magn:    0.5195    constr:    0.0000
     atom:   33    charge:    3.9669    magn:    0.5230    constr:    0.0000
     atom:   34    charge:    3.9748    magn:    0.5182    constr:    0.0000
     atom:   35    charge:    3.9799    magn:    0.5126    constr:    0.0000
     atom:   36    charge:    3.9760    magn:    0.5171    constr:    0.0000
     atom:   37    charge:    0.6096    magn:    0.1356    constr:    0.0000

     total cpu time spent up to now is     1595.9 secs

     total energy              =   -3634.57040342 Ry
     Harris-Foulkes estimate   =   -3634.65119715 Ry
     estimated scf accuracy    <       2.60488317 Ry

     total magnetization       =    26.61 Bohr mag/cell
     absolute magnetization    =    29.89 Bohr mag/cell

     iteration # 13     ecut=    44.10 Ry     beta=0.10
     Davidson diagonalization with overlap
     ethr =  2.93E-04,  avg # of iterations =  1.0

     negative rho (up, down):  9.159E-04 8.787E-04
 
     Adding external electric field

     Computed dipole along edir(3) : 
        Dipole                0.0190 Ry au,          0.0483 Debye
        Dipole field          0.0000 Ry au
 
        Potential amp.       -0.0028 Ry
        Total length         73.6798 bohr
 
 
     Adding external electric field

     Computed dipole along edir(3) : 
        Dipole                0.0190 Ry au,          0.0483 Debye
        Dipole field          0.0000 Ry au
 
        Potential amp.       -0.0028 Ry
        Total length         73.6798 bohr
 
 
     Magnetic moment per site:
     atom:    1    charge:    3.9833    magn:    0.4757    constr:    0.0000
     atom:    2    charge:    3.9829    magn:    0.4640    constr:    0.0000
     atom:    3    charge:    3.9813    magn:    0.4911    constr:    0.0000
     atom:    4    charge:    3.9716    magn:    0.4914    constr:    0.0000
     atom:    5    charge:    3.9710    magn:    0.4376    constr:    0.0000
     atom:    6    charge:    3.9728    magn:    0.4891    constr:    0.0000
     atom:    7    charge:    3.9637    magn:    0.3491    constr:    0.0000
     atom:    8    charge:    3.9603    magn:    0.2957    constr:    0.0000
     atom:    9    charge:    3.9695    magn:    0.4636    constr:    0.0000
     atom:   10    charge:    3.9687    magn:    0.4839    constr:    0.0000
     atom:   11    charge:    3.9759    magn:    0.4740    constr:    0.0000
     atom:   12    charge:    3.9691    magn:    0.4823    constr:    0.0000
     atom:   13    charge:    3.9708    magn:    0.4787    constr:    0.0000
     atom:   14    charge:    3.9711    magn:    0.4777    constr:    0.0000
     atom:   15    charge:    3.9708    magn:    0.4778    constr:    0.0000
     atom:   16    charge:    3.9722    magn:    0.4660    constr:    0.0000
     atom:   17    charge:    3.9736    magn:    0.4681    constr:    0.0000
     atom:   18    charge:    3.9726    magn:    0.4615    constr:    0.0000
     atom:   19    charge:    3.9712    magn:    0.4782    constr:    0.0000
     atom:   20    charge:    3.9713    magn:    0.4788    constr:    0.0000
     atom:   21    charge:    3.9710    magn:    0.4735    constr:    0.0000
     atom:   22    charge:    3.9716    magn:    0.4772    constr:    0.0000
     atom:   23    charge:    3.9708    magn:    0.4776    constr:    0.0000
     atom:   24    charge:    3.9712    magn:    0.4770    constr:    0.0000
     atom:   25    charge:    3.9675    magn:    0.4774    constr:    0.0000
     atom:   26    charge:    3.9671    magn:    0.4773    constr:    0.0000
     atom:   27    charge:    3.9682    magn:    0.4767    constr:    0.0000
     atom:   28    charge:    3.9666    magn:    0.4748    constr:    0.0000
     atom:   29    charge:    3.9663    magn:    0.4744    constr:    0.0000
     atom:   30    charge:    3.9663    magn:    0.4753    constr:    0.0000
     atom:   31    charge:    3.9697    magn:    0.4872    constr:    0.0000
     atom:   32    charge:    3.9693    magn:    0.4878    constr:    0.0000
     atom:   33    charge:    3.9696    magn:    0.4893    constr:    0.0000
     atom:   34    charge:    3.9795    magn:    0.4826    constr:    0.0000
     atom:   35    charge:    3.9788    magn:    0.4811    constr:    0.0000
     atom:   36    charge:    3.9793    magn:    0.4824    constr:    0.0000
     atom:   37    charge:    0.6064    magn:    0.1166    constr:    0.0000

     total cpu time spent up to now is     1708.2 secs

     total energy              =   -3634.64519169 Ry
     Harris-Foulkes estimate   =   -3634.65174599 Ry
     estimated scf accuracy    <       0.62764430 Ry

     total magnetization       =    24.94 Bohr mag/cell
     absolute magnetization    =    28.55 Bohr mag/cell

     iteration # 14     ecut=    44.10 Ry     beta=0.10
     Davidson diagonalization with overlap
     ethr =  1.72E-04,  avg # of iterations =  2.0

     negative rho (up, down):  9.225E-04 9.075E-04
 
     Adding external electric field

     Computed dipole along edir(3) : 
        Dipole               -0.0310 Ry au,         -0.0789 Debye
        Dipole field         -0.0000 Ry au
 
        Potential amp.        0.0046 Ry
        Total length         73.6798 bohr
 
 
     Adding external electric field

     Computed dipole along edir(3) : 
        Dipole               -0.0310 Ry au,         -0.0789 Debye
        Dipole field         -0.0000 Ry au
 
        Potential amp.        0.0046 Ry
        Total length         73.6798 bohr
 
 
     Magnetic moment per site:
     atom:    1    charge:    3.9823    magn:    0.4340    constr:    0.0000
     atom:    2    charge:    3.9810    magn:    0.4210    constr:    0.0000
     atom:    3    charge:    3.9803    magn:    0.4543    constr:    0.0000
     atom:    4    charge:    3.9720    magn:    0.4542    constr:    0.0000
     atom:    5    charge:    3.9708    magn:    0.3914    constr:    0.0000
     atom:    6    charge:    3.9722    magn:    0.4521    constr:    0.0000
     atom:    7    charge:    3.9654    magn:    0.2937    constr:    0.0000
     atom:    8    charge:    3.9628    magn:    0.2362    constr:    0.0000
     atom:    9    charge:    3.9684    magn:    0.4250    constr:    0.0000
     atom:   10    charge:    3.9722    magn:    0.4423    constr:    0.0000
     atom:   11    charge:    3.9778    magn:    0.4325    constr:    0.0000
     atom:   12    charge:    3.9719    magn:    0.4407    constr:    0.0000
     atom:   13    charge:    3.9723    magn:    0.4376    constr:    0.0000
     atom:   14    charge:    3.9723    magn:    0.4364    constr:    0.0000
     atom:   15    charge:    3.9725    magn:    0.4370    constr:    0.0000
     atom:   16    charge:    3.9715    magn:    0.4256    constr:    0.0000
     atom:   17    charge:    3.9726    magn:    0.4266    constr:    0.0000
     atom:   18    charge:    3.9717    magn:    0.4212    constr:    0.0000
     atom:   19    charge:    3.9706    magn:    0.4389    constr:    0.0000
     atom:   20    charge:    3.9707    magn:    0.4394    constr:    0.0000
     atom:   21    charge:    3.9705    magn:    0.4335    constr:    0.0000
     atom:   22    charge:    3.9729    magn:    0.4369    constr:    0.0000
     atom:   23    charge:    3.9732    magn:    0.4373    constr:    0.0000
     atom:   24    charge:    3.9729    magn:    0.4364    constr:    0.0000
     atom:   25    charge:    3.9697    magn:    0.4366    constr:    0.0000
     atom:   26    charge:    3.9699    magn:    0.4362    constr:    0.0000
     atom:   27    charge:    3.9695    magn:    0.4377    constr:    0.0000
     atom:   28    charge:    3.9655    magn:    0.4383    constr:    0.0000
     atom:   29    charge:    3.9666    magn:    0.4368    constr:    0.0000
     atom:   30    charge:    3.9659    magn:    0.4385    constr:    0.0000
     atom:   31    charge:    3.9713    magn:    0.4501    constr:    0.0000
     atom:   32    charge:    3.9717    magn:    0.4501    constr:    0.0000
     atom:   33    charge:    3.9705    magn:    0.4524    constr:    0.0000
     atom:   34    charge:    3.9800    magn:    0.4462    constr:    0.0000
     atom:   35    charge:    3.9794    magn:    0.4442    constr:    0.0000
     atom:   36    charge:    3.9798    magn:    0.4457    constr:    0.0000
     atom:   37    charge:    0.5999    magn:    0.0907    constr:    0.0000

     total cpu time spent up to now is     1824.4 secs

     total energy              =   -3634.65711982 Ry
     Harris-Foulkes estimate   =   -3634.65957130 Ry
     estimated scf accuracy    <       0.16433043 Ry

     total magnetization       =    24.10 Bohr mag/cell
     absolute magnetization    =    27.94 Bohr mag/cell

     iteration # 15     ecut=    44.10 Ry     beta=0.10
     Davidson diagonalization with overlap
     ethr =  4.51E-05,  avg # of iterations =  9.6

     negative rho (up, down):  9.041E-04 8.748E-04
 
     Adding external electric field

     Computed dipole along edir(3) : 
        Dipole               -0.0474 Ry au,         -0.1205 Debye
        Dipole field         -0.0000 Ry au
 
        Potential amp.        0.0070 Ry
        Total length         73.6798 bohr
 
 
     Adding external electric field

     Computed dipole along edir(3) : 
        Dipole               -0.0474 Ry au,         -0.1205 Debye
        Dipole field         -0.0000 Ry au
 
        Potential amp.        0.0070 Ry
        Total length         73.6798 bohr
 
 
     Magnetic moment per site:
     atom:    1    charge:    3.9827    magn:    0.4223    constr:    0.0000
     atom:    2    charge:    3.9824    magn:    0.4078    constr:    0.0000
     atom:    3    charge:    3.9787    magn:    0.4465    constr:    0.0000
     atom:    4    charge:    3.9740    magn:    0.4429    constr:    0.0000
     atom:    5    charge:    3.9734    magn:    0.3759    constr:    0.0000
     atom:    6    charge:    3.9755    magn:    0.4398    constr:    0.0000
     atom:    7    charge:    3.9654    magn:    0.2771    constr:    0.0000
     atom:    8    charge:    3.9627    magn:    0.2186    constr:    0.0000
     atom:    9    charge:    3.9702    magn:    0.4133    constr:    0.0000
     atom:   10    charge:    3.9719    magn:    0.4313    constr:    0.0000
     atom:   11    charge:    3.9767    magn:    0.4216    constr:    0.0000
     atom:   12    charge:    3.9724    magn:    0.4291    constr:    0.0000
     atom:   13    charge:    3.9716    magn:    0.4268    constr:    0.0000
     atom:   14    charge:    3.9720    magn:    0.4253    constr:    0.0000
     atom:   15    charge:    3.9712    magn:    0.4268    constr:    0.0000
     atom:   16    charge:    3.9700    magn:    0.4152    constr:    0.0000
     atom:   17    charge:    3.9707    magn:    0.4158    constr:    0.0000
     atom:   18    charge:    3.9701    magn:    0.4109    constr:    0.0000
     atom:   19    charge:    3.9699    magn:    0.4285    constr:    0.0000
     atom:   20    charge:    3.9698    magn:    0.4291    constr:    0.0000
     atom:   21    charge:    3.9705    magn:    0.4225    constr:    0.0000
     atom:   22    charge:    3.9728    magn:    0.4261    constr:    0.0000
     atom:   23    charge:    3.9721    magn:    0.4276    constr:    0.0000
     atom:   24    charge:    3.9726    magn:    0.4256    constr:    0.0000
     atom:   25    charge:    3.9711    magn:    0.4249    constr:    0.0000
     atom:   26    charge:    3.9710    magn:    0.4248    constr:    0.0000
     atom:   27    charge:    3.9719    magn:    0.4256    constr:    0.0000
     atom:   28    charge:    3.9685    magn:    0.4266    constr:    0.0000
     atom:   29    charge:    3.9677    magn:    0.4262    constr:    0.0000
     atom:   30    charge:    3.9684    magn:    0.4271    constr:    0.0000
     atom:   31    charge:    3.9724    magn:    0.4400    constr:    0.0000
     atom:   32    charge:    3.9722    magn:    0.4404    constr:    0.0000
     atom:   33    charge:    3.9726    magn:    0.4415    constr:    0.0000
     atom:   34    charge:    3.9801    magn:    0.4370    constr:    0.0000
     atom:   35    charge:    3.9801    magn:    0.4347    constr:    0.0000
     atom:   36    charge:    3.9801    magn:    0.4365    constr:    0.0000
     atom:   37    charge:    0.5988    magn:    0.0826    constr:    0.0000

     total cpu time spent up to now is     1980.1 secs

     total energy              =   -3634.65979620 Ry
     Harris-Foulkes estimate   =   -3634.66503564 Ry
     estimated scf accuracy    <       0.19124388 Ry

     total magnetization       =    23.02 Bohr mag/cell
     absolute magnetization    =    27.09 Bohr mag/cell

     iteration # 16     ecut=    44.10 Ry     beta=0.10
     Davidson diagonalization with overlap
     ethr =  4.51E-05,  avg # of iterations =  1.4

     negative rho (up, down):  8.898E-04 8.524E-04
 
     Adding external electric field

     Computed dipole along edir(3) : 
        Dipole               -0.0305 Ry au,         -0.0776 Debye
        Dipole field         -0.0000 Ry au
 
        Potential amp.        0.0045 Ry
        Total length         73.6798 bohr
 
 
     Adding external electric field

     Computed dipole along edir(3) : 
        Dipole               -0.0305 Ry au,         -0.0776 Debye
        Dipole field         -0.0000 Ry au
 
        Potential amp.        0.0045 Ry
        Total length         73.6798 bohr
 
 
     Magnetic moment per site:
     atom:    1    charge:    3.9836    magn:    0.4075    constr:    0.0000
     atom:    2    charge:    3.9825    magn:    0.3926    constr:    0.0000
     atom:    3    charge:    3.9816    magn:    0.4337    constr:    0.0000
     atom:    4    charge:    3.9739    magn:    0.4312    constr:    0.0000
     atom:    5    charge:    3.9722    magn:    0.3594    constr:    0.0000
     atom:    6    charge:    3.9745    magn:    0.4285    constr:    0.0000
     atom:    7    charge:    3.9655    magn:    0.2568    constr:    0.0000
     atom:    8    charge:    3.9628    magn:    0.1970    constr:    0.0000
     atom:    9    charge:    3.9705    magn:    0.4004    constr:    0.0000
     atom:   10    charge:    3.9728    magn:    0.4171    constr:    0.0000
     atom:   11    charge:    3.9769    magn:    0.4074    constr:    0.0000
     atom:   12    charge:    3.9728    magn:    0.4150    constr:    0.0000
     atom:   13    charge:    3.9722    magn:    0.4127    constr:    0.0000
     atom:   14    charge:    3.9722    magn:    0.4113    constr:    0.0000
     atom:   15    charge:    3.9718    magn:    0.4131    constr:    0.0000
     atom:   16    charge:    3.9709    magn:    0.4008    constr:    0.0000
     atom:   17    charge:    3.9716    magn:    0.4005    constr:    0.0000
     atom:   18    charge:    3.9709    magn:    0.3967    constr:    0.0000
     atom:   19    charge:    3.9706    magn:    0.4147    constr:    0.0000
     atom:   20    charge:    3.9704    magn:    0.4153    constr:    0.0000
     atom:   21    charge:    3.9709    magn:    0.4087    constr:    0.0000
     atom:   22    charge:    3.9728    magn:    0.4127    constr:    0.0000
     atom:   23    charge:    3.9725    magn:    0.4145    constr:    0.0000
     atom:   24    charge:    3.9727    magn:    0.4122    constr:    0.0000
     atom:   25    charge:    3.9710    magn:    0.4116    constr:    0.0000
     atom:   26    charge:    3.9710    magn:    0.4115    constr:    0.0000
     atom:   27    charge:    3.9716    magn:    0.4129    constr:    0.0000
     atom:   28    charge:    3.9688    magn:    0.4147    constr:    0.0000
     atom:   29    charge:    3.9683    magn:    0.4138    constr:    0.0000
     atom:   30    charge:    3.9687    magn:    0.4151    constr:    0.0000
     atom:   31    charge:    3.9740    magn:    0.4277    constr:    0.0000
     atom:   32    charge:    3.9740    magn:    0.4280    constr:    0.0000
     atom:   33    charge:    3.9741    magn:    0.4291    constr:    0.0000
     atom:   34    charge:    3.9821    magn:    0.4252    constr:    0.0000
     atom:   35    charge:    3.9816    magn:    0.4232    constr:    0.0000
     atom:   36    charge:    3.9821    magn:    0.4246    constr:    0.0000
     atom:   37    charge:    0.5971    magn:    0.0723    constr:    0.0000

     total cpu time spent up to now is     2094.1 secs

     total energy              =   -3634.65996031 Ry
     Harris-Foulkes estimate   =   -3634.66590367 Ry
     estimated scf accuracy    <       0.12744588 Ry

     total magnetization       =    22.76 Bohr mag/cell
     absolute magnetization    =    26.87 Bohr mag/cell

     iteration # 17     ecut=    44.10 Ry     beta=0.10
     Davidson diagonalization with overlap
     ethr =  3.50E-05,  avg # of iterations =  1.0

     negative rho (up, down):  8.684E-04 8.115E-04
 
     Adding external electric field

     Computed dipole along edir(3) : 
        Dipole               -0.0651 Ry au,         -0.1654 Debye
        Dipole field         -0.0001 Ry au
 
        Potential amp.        0.0096 Ry
        Total length         73.6798 bohr
 
 
     Adding external electric field

     Computed dipole along edir(3) : 
        Dipole               -0.0651 Ry au,         -0.1654 Debye
        Dipole field         -0.0001 Ry au
 
        Potential amp.        0.0096 Ry
        Total length         73.6798 bohr
 
 
     Magnetic moment per site:
     atom:    1    charge:    3.9835    magn:    0.4032    constr:    0.0000
     atom:    2    charge:    3.9827    magn:    0.3873    constr:    0.0000
     atom:    3    charge:    3.9816    magn:    0.4324    constr:    0.0000
     atom:    4    charge:    3.9750    magn:    0.4283    constr:    0.0000
     atom:    5    charge:    3.9726    magn:    0.3527    constr:    0.0000
     atom:    6    charge:    3.9759    magn:    0.4251    constr:    0.0000
     atom:    7    charge:    3.9652    magn:    0.2488    constr:    0.0000
     atom:    8    charge:    3.9626    magn:    0.1884    constr:    0.0000
     atom:    9    charge:    3.9706    magn:    0.3978    constr:    0.0000
     atom:   10    charge:    3.9721    magn:    0.4137    constr:    0.0000
     atom:   11    charge:    3.9764    magn:    0.4036    constr:    0.0000
     atom:   12    charge:    3.9724    magn:    0.4113    constr:    0.0000
     atom:   13    charge:    3.9723    magn:    0.4088    constr:    0.0000
     atom:   14    charge:    3.9726    magn:    0.4071    constr:    0.0000
     atom:   15    charge:    3.9720    magn:    0.4096    constr:    0.0000
     atom:   16    charge:    3.9708    magn:    0.3972    constr:    0.0000
     atom:   17    charge:    3.9715    magn:    0.3960    constr:    0.0000
     atom:   18    charge:    3.9710    magn:    0.3931    constr:    0.0000
     atom:   19    charge:    3.9702    magn:    0.4116    constr:    0.0000
     atom:   20    charge:    3.9702    magn:    0.4121    constr:    0.0000
     atom:   21    charge:    3.9706    magn:    0.4055    constr:    0.0000
     atom:   22    charge:    3.9721    magn:    0.4097    constr:    0.0000
     atom:   23    charge:    3.9718    magn:    0.4121    constr:    0.0000
     atom:   24    charge:    3.9721    magn:    0.4091    constr:    0.0000
     atom:   25    charge:    3.9707    magn:    0.4084    constr:    0.0000
     atom:   26    charge:    3.9707    magn:    0.4084    constr:    0.0000
     atom:   27    charge:    3.9715    magn:    0.4099    constr:    0.0000
     atom:   28    charge:    3.9692    magn:    0.4124    constr:    0.0000
     atom:   29    charge:    3.9685    magn:    0.4115    constr:    0.0000
     atom:   30    charge:    3.9691    magn:    0.4128    constr:    0.0000
     atom:   31    charge:    3.9739    magn:    0.4261    constr:    0.0000
     atom:   32    charge:    3.9738    magn:    0.4265    constr:    0.0000
     atom:   33    charge:    3.9741    magn:    0.4273    constr:    0.0000
     atom:   34    charge:    3.9822    magn:    0.4240    constr:    0.0000
     atom:   35    charge:    3.9819    magn:    0.4220    constr:    0.0000
     atom:   36    charge:    3.9823    magn:    0.4234    constr:    0.0000
     atom:   37    charge:    0.5955    magn:    0.0663    constr:    0.0000

     total cpu time spent up to now is     2206.5 secs

     total energy              =   -3634.66180968 Ry
     Harris-Foulkes estimate   =   -3634.66475542 Ry
     estimated scf accuracy    <       0.29823290 Ry

     total magnetization       =    22.51 Bohr mag/cell
     absolute magnetization    =    26.67 Bohr mag/cell

     iteration # 18     ecut=    44.10 Ry     beta=0.10
     Davidson diagonalization with overlap
     ethr =  3.50E-05,  avg # of iterations =  1.8

     negative rho (up, down):  8.526E-04 7.820E-04
 
     Adding external electric field

     Computed dipole along edir(3) : 
        Dipole               -0.0676 Ry au,         -0.1719 Debye
        Dipole field         -0.0001 Ry au
 
        Potential amp.        0.0100 Ry
        Total length         73.6798 bohr
 
 
     Adding external electric field

     Computed dipole along edir(3) : 
        Dipole               -0.0676 Ry au,         -0.1719 Debye
        Dipole field         -0.0001 Ry au
 
        Potential amp.        0.0100 Ry
        Total length         73.6798 bohr
 
 
     Magnetic moment per site:
     atom:    1    charge:    3.9835    magn:    0.3975    constr:    0.0000
     atom:    2    charge:    3.9824    magn:    0.3811    constr:    0.0000
     atom:    3    charge:    3.9822    magn:    0.4287    constr:    0.0000
     atom:    4    charge:    3.9752    magn:    0.4240    constr:    0.0000
     atom:    5    charge:    3.9728    magn:    0.3450    constr:    0.0000
     atom:    6    charge:    3.9755    magn:    0.4211    constr:    0.0000
     atom:    7    charge:    3.9659    magn:    0.2393    constr:    0.0000
     atom:    8    charge:    3.9633    magn:    0.1785    constr:    0.0000
     atom:    9    charge:    3.9713    magn:    0.3929    constr:    0.0000
     atom:   10    charge:    3.9731    magn:    0.4078    constr:    0.0000
     atom:   11    charge:    3.9768    magn:    0.3978    constr:    0.0000
     atom:   12    charge:    3.9729    magn:    0.4055    constr:    0.0000
     atom:   13    charge:    3.9714    magn:    0.4041    constr:    0.0000
     atom:   14    charge:    3.9713    magn:    0.4024    constr:    0.0000
     atom:   15    charge:    3.9715    magn:    0.4049    constr:    0.0000
     atom:   16    charge:    3.9704    magn:    0.3922    constr:    0.0000
     atom:   17    charge:    3.9709    magn:    0.3905    constr:    0.0000
     atom:   18    charge:    3.9704    magn:    0.3883    constr:    0.0000
[...]
     5.2807   5.3353   5.5009   5.5364   5.5845   5.6582   5.7248   5.7614
     5.8138   5.8787   5.9042   5.9390   5.9949   6.1601   6.2341   6.3108
     6.3400   6.3704   6.4329   6.4718   6.5387   6.5740   6.6742   6.6906
     6.7538   6.8214   6.8814   6.9668   7.0434   7.1041   7.1233   7.1964
     7.2287   7.4864   7.5877   7.6129   7.7149   7.8458   7.8893   7.9279
     7.9929   8.0336   8.0745   8.1516   8.2459   8.3334   8.4068   8.5522
     8.6112   8.6762

 ------ SPIN DOWN ----------


          k = 0.0000 0.0000 0.0000 ( 62137 PWs)   bands (ev):

   -12.7063  -9.0558  -7.7084  -6.8461  -6.6434  -6.4533  -6.2185  -6.1314
    -5.7173  -5.6554  -5.4833  -5.2286  -5.1615  -4.8611  -4.6914  -4.6019
    -4.5717  -4.5633  -4.5436  -4.4906  -4.4435  -4.3278  -4.2938  -4.1871
    -4.1713  -4.1504  -4.0702  -4.0092  -4.0043  -3.9329  -3.8923  -3.8796
    -3.8245  -3.8054  -3.7905  -3.7694  -3.7328  -3.6679  -3.6333  -3.5834
    -3.5678  -3.5209  -3.4980  -3.4303  -3.4273  -3.3648  -3.3199  -3.2981
    -3.2529  -3.2277  -3.1118  -3.1008  -3.0639  -3.0360  -3.0094  -3.0037
    -2.9738  -2.9481  -2.9182  -2.9015  -2.8766  -2.8658  -2.8374  -2.8110
    -2.7938  -2.7478  -2.7309  -2.7107  -2.6795  -2.6719  -2.6353  -2.6094
    -2.5785  -2.5683  -2.5605  -2.5307  -2.4876  -2.4626  -2.4458  -2.4085
    -2.3781  -2.3616  -2.3264  -2.3207  -2.2962  -2.2934  -2.2764  -2.2687
    -2.2514  -2.2459  -2.2373  -2.1914  -2.1695  -2.1643  -2.1419  -2.1213
    -2.0873  -2.0770  -2.0625  -2.0406  -2.0378  -2.0322  -2.0107  -2.0040
    -1.9868  -1.9828  -1.9521  -1.9402  -1.9341  -1.9271  -1.9104  -1.8942
    -1.8889  -1.8308  -1.8177  -1.7523  -1.7004  -1.6848  -1.6626  -1.6587
    -1.6387  -1.6118  -1.5708  -1.5600  -1.5575  -1.5441  -1.4942  -1.4918
    -1.4109  -1.4073  -1.4001  -1.3760  -1.3654  -1.3533  -1.3114  -1.3003
    -1.2676  -1.2389  -1.2249  -1.2024  -1.1788  -1.1594  -1.1492  -1.1446
    -1.1254  -1.0994  -1.0719  -1.0489  -1.0445  -1.0240  -1.0227  -0.9887
    -0.9691  -0.9608  -0.9510  -0.9376  -0.9298  -0.9147  -0.9109  -0.9048
    -0.8871  -0.8646  -0.8494  -0.8307  -0.8233  -0.8160  -0.7759  -0.7625
    -0.7343  -0.7133  -0.7052  -0.6975  -0.6772  -0.6569  -0.6492  -0.6411
    -0.6249  -0.6090  -0.6015  -0.5919  -0.5610  -0.5444  -0.5343  -0.5216
    -0.5106  -0.5085  -0.4939  -0.4889  -0.4190  -0.3532  -0.3176  -0.2895
    -0.2029  -0.1342   0.0666   0.2470   0.3190   0.5159   0.5794   0.8220
     0.9019   1.0087   1.1508   1.2245   1.2517   1.3343   1.4938   1.5105
     1.8292   2.1265   2.1778   2.3617   2.6189   2.7414   2.8973   3.0104
     3.1308   3.3972   3.4578   3.5364   3.6520   3.8436   4.0064   4.0869
     4.1158   4.2839   4.6697   4.7909   4.8545   4.9032   5.0454   5.1775
     5.4438   5.6952   5.7536   5.8094   6.0135   6.0174   6.1602   6.2118
     6.2513   6.2782   6.2876   6.3013   6.3622   6.5872   6.6725   6.6878
     6.7046   6.7196   6.7409   6.8805   6.9076   7.0938   7.2680   7.3192
     7.3475   7.3501   7.4390   7.4596   7.5084   7.5496   7.5503   7.6044
     7.6756   7.7001   7.7728   7.7896   7.9402   8.0714   8.1289   8.1595
     8.2271   8.2642   8.2856   8.4022   8.5183   8.6482   8.6518   8.7582
     8.8240   8.8907

          k = 0.0000 0.0442 0.0000 ( 62100 PWs)   bands (ev):

   -12.7003  -8.7767  -7.9624  -7.4716  -6.8047  -6.3575  -6.0509  -5.8250
    -5.5361  -5.3976  -5.2868  -5.1174  -5.0668  -4.8641  -4.8432  -4.6751
    -4.5850  -4.5618  -4.5201  -4.4687  -4.4575  -4.3235  -4.2507  -4.1947
    -4.1423  -4.1317  -4.0756  -4.0626  -4.0299  -3.9694  -3.9489  -3.9235
    -3.9093  -3.8746  -3.8541  -3.8185  -3.7320  -3.7093  -3.6671  -3.6386
    -3.5709  -3.5187  -3.5124  -3.4731  -3.4116  -3.3937  -3.3428  -3.2882
    -3.2386  -3.1889  -3.1314  -3.1123  -3.0786  -3.0645  -3.0021  -2.9956
    -2.9739  -2.9547  -2.9359  -2.9158  -2.8965  -2.8765  -2.8478  -2.8139
    -2.7980  -2.7411  -2.7326  -2.7104  -2.6788  -2.6743  -2.6706  -2.6373
    -2.5868  -2.5681  -2.5627  -2.5365  -2.5124  -2.4875  -2.4783  -2.4638
    -2.4306  -2.4257  -2.4023  -2.3745  -2.3636  -2.3222  -2.2834  -2.2564
    -2.2486  -2.2399  -2.2235  -2.2069  -2.2004  -2.1734  -2.1540  -2.1362
    -2.1328  -2.1118  -2.0911  -2.0755  -2.0408  -2.0227  -2.0171  -1.9906
    -1.9843  -1.9480  -1.9361  -1.9065  -1.8951  -1.8617  -1.8595  -1.8331
    -1.8279  -1.7936  -1.7733  -1.7669  -1.7390  -1.7229  -1.6888  -1.6745
    -1.6518  -1.6325  -1.6003  -1.5941  -1.5792  -1.5677  -1.5595  -1.5122
    -1.4924  -1.4775  -1.4417  -1.4201  -1.3988  -1.3867  -1.3495  -1.3345
    -1.3260  -1.3079  -1.3040  -1.2620  -1.2473  -1.2164  -1.1988  -1.1725
    -1.1605  -1.1366  -1.1220  -1.1168  -1.1049  -1.0750  -1.0414  -1.0262
    -1.0068  -0.9856  -0.9729  -0.9665  -0.9512  -0.9071  -0.8957  -0.8537
    -0.8435  -0.8199  -0.8036  -0.7725  -0.7378  -0.7155  -0.6887  -0.6863
    -0.6777  -0.6543  -0.6423  -0.6390  -0.6367  -0.6209  -0.6060  -0.6012
    -0.5833  -0.5675  -0.5510  -0.5312  -0.5085  -0.4978  -0.4799  -0.4525
    -0.4379  -0.4297  -0.4160  -0.3280  -0.2384  -0.1272  -0.1008  -0.0497
     0.1232   0.1314   0.1988   0.3016   0.4024   0.5176   0.5790   0.7547
     0.9333   1.0575   1.1664   1.2643   1.5770   1.6973   1.7394   1.9106
     1.9936   2.0065   2.1188   2.1665   2.3768   2.4086   2.5799   2.6966
     3.0993   3.1849   3.4347   3.4722   3.5691   3.6865   3.7900   3.9162
     4.0225   4.2673   4.4450   4.5381   4.6685   4.7275   4.8245   4.9919
     5.0374   5.0890   5.2143   5.3115   5.4475   5.7543   5.8336   5.9560
     5.9658   6.1683   6.2690   6.3312   6.4217   6.5433   6.6168   6.7267
     6.7666   6.9498   7.0440   7.2202   7.3430   7.3803   7.4449   7.5295
     7.6093   7.6996   7.7170   7.7570   7.7847   7.8428   7.8736   7.9445
     7.9783   7.9983   8.0658   8.1058   8.2263   8.2699   8.3644   8.3791
     8.4203   8.4532   8.4823   8.5075   8.5255   8.5819   8.6315   8.6928
     8.7103   8.7804

          k = 0.0541 0.0000 0.0000 ( 61980 PWs)   bands (ev):

   -12.6847  -8.6323  -7.5486  -7.2697  -6.6013  -6.5799  -6.2990  -6.0556
    -6.0011  -5.7062  -5.5454  -5.4498  -5.2993  -5.1362  -5.0915  -4.9790
    -4.7809  -4.7593  -4.6151  -4.4422  -4.3667  -4.2661  -4.2633  -4.1239
    -4.1113  -4.0431  -4.0012  -3.9829  -3.8629  -3.8153  -3.7467  -3.7264
    -3.7102  -3.7078  -3.6849  -3.6818  -3.6477  -3.6057  -3.5598  -3.5540
    -3.5244  -3.5236  -3.4912  -3.4513  -3.4306  -3.4240  -3.3139  -3.3011
    -3.2644  -3.2480  -3.1813  -3.1732  -3.1299  -3.0887  -3.0547  -2.9914
    -2.9844  -2.9440  -2.9430  -2.9248  -2.8645  -2.8497  -2.8233  -2.8105
    -2.7696  -2.7274  -2.7173  -2.7022  -2.6375  -2.6156  -2.5826  -2.5519
    -2.5470  -2.5005  -2.4880  -2.4717  -2.4470  -2.4038  -2.3947  -2.3832
    -2.3453  -2.3400  -2.3183  -2.2828  -2.2766  -2.2551  -2.2527  -2.2340
    -2.2336  -2.2198  -2.1946  -2.1905  -2.1833  -2.1643  -2.1386  -2.1325
    -2.1151  -2.1007  -2.0846  -2.0739  -2.0533  -2.0389  -2.0321  -2.0175
    -2.0155  -1.9695  -1.9654  -1.9263  -1.9224  -1.8626  -1.8576  -1.8315
    -1.7776  -1.7742  -1.7487  -1.7327  -1.7097  -1.6638  -1.6262  -1.6149
    -1.5768  -1.5559  -1.5535  -1.5077  -1.4923  -1.4603  -1.4574  -1.4346
    -1.4131  -1.4019  -1.3880  -1.3823  -1.3196  -1.3169  -1.2994  -1.2940
    -1.2647  -1.2596  -1.2377  -1.2031  -1.2001  -1.1797  -1.1590  -1.1222
    -1.1147  -1.1143  -1.0979  -1.0645  -1.0603  -1.0459  -1.0202  -1.0006
    -0.9903  -0.9726  -0.9570  -0.9182  -0.9157  -0.9078  -0.8714  -0.8663
    -0.8657  -0.8631  -0.8288  -0.8152  -0.7979  -0.7848  -0.7807  -0.7678
    -0.7508  -0.7369  -0.7336  -0.7209  -0.7116  -0.6964  -0.6688  -0.6620
    -0.6515  -0.6089  -0.5843  -0.5643  -0.5599  -0.5543  -0.5371  -0.5321
    -0.5080  -0.5077  -0.4877  -0.4636  -0.4621  -0.4512  -0.4019  -0.3926
    -0.3658  -0.3414  -0.2450  -0.2029   0.0018   0.0067   0.0883   0.2188
     0.4386   0.5406   0.7572   1.2074   1.2269   1.5894   1.9843   2.0142
     2.2966   2.5969   2.8061   3.1042   3.3876   3.4963   3.5731   3.7277
     3.8635   3.9367   4.0650   4.1160   4.3189   4.3314   4.4390   4.5954
     4.6484   4.6584   4.8066   4.9235   5.0314   5.1459   5.2750   5.3592
     5.4086   5.5435   5.5806   5.5942   5.6453   5.8098   5.8203   6.0210
     6.0650   6.1215   6.2246   6.3099   6.4430   6.5048   6.5389   6.6031
     6.6692   6.6938   6.7301   6.7436   6.7606   6.8570   6.8902   6.9052
     6.9915   7.0258   7.0403   7.1425   7.2225   7.2647   7.3110   7.3567
     7.4104   7.5209   7.5997   7.6123   7.6711   7.7975   7.8079   7.8416
     7.8829   7.9653   7.9666   8.0176   8.0187   8.0480   8.0558   8.0931
     8.1155   8.2287

          k = 0.0541 0.0442 0.0000 ( 62079 PWs)   bands (ev):

   -12.6801  -8.3540  -7.5640  -7.2806  -7.0647  -6.6346  -6.4775  -6.2360
    -5.9977  -5.7759  -5.4860  -5.3801  -5.1715  -4.9595  -4.8415  -4.7525
    -4.6855  -4.6071  -4.5379  -4.4721  -4.4224  -4.3430  -4.2611  -4.1869
    -4.1145  -4.0848  -4.0760  -3.9725  -3.9238  -3.9043  -3.8550  -3.8524
    -3.8074  -3.7859  -3.7707  -3.7097  -3.6942  -3.6255  -3.5521  -3.5125
    -3.4762  -3.4631  -3.4328  -3.4068  -3.3755  -3.3487  -3.3268  -3.2881
    -3.2717  -3.2306  -3.1950  -3.1611  -3.1217  -3.0979  -3.0494  -3.0446
    -3.0000  -2.9650  -2.9383  -2.9140  -2.8839  -2.8452  -2.8316  -2.7752
    -2.7418  -2.7047  -2.6971  -2.6805  -2.6609  -2.6421  -2.6174  -2.5943
    -2.5668  -2.5486  -2.5206  -2.5084  -2.4794  -2.4724  -2.4472  -2.4160
    -2.3901  -2.3799  -2.3635  -2.3540  -2.3270  -2.3162  -2.2933  -2.2806
    -2.2474  -2.2253  -2.2177  -2.2001  -2.1785  -2.1608  -2.1422  -2.1305
    -2.0997  -2.0761  -2.0556  -2.0367  -2.0285  -2.0127  -1.9999  -1.9743
    -1.9632  -1.9382  -1.9084  -1.8956  -1.8749  -1.8561  -1.8393  -1.8133
    -1.7894  -1.7487  -1.7451  -1.7183  -1.7109  -1.6984  -1.6712  -1.6417
    -1.6154  -1.6000  -1.5943  -1.5741  -1.5525  -1.5396  -1.5292  -1.5158
    -1.4865  -1.4614  -1.4480  -1.4116  -1.3921  -1.3698  -1.3429  -1.3188
    -1.2994  -1.2898  -1.2735  -1.2437  -1.2090  -1.1884  -1.1754  -1.1623
    -1.1466  -1.1205  -1.1041  -1.0942  -1.0790  -1.0465  -1.0424  -1.0301
    -1.0077  -0.9862  -0.9657  -0.9432  -0.9354  -0.9092  -0.8925  -0.8862
    -0.8768  -0.8369  -0.8178  -0.7985  -0.7807  -0.7722  -0.7428  -0.7314
    -0.7187  -0.6798  -0.6418  -0.6308  -0.6108  -0.6049  -0.5924  -0.5830
    -0.5773  -0.5628  -0.5471  -0.5257  -0.5166  -0.5085  -0.4918  -0.4609
    -0.4476  -0.4260  -0.4166  -0.4042  -0.3904  -0.3558  -0.3189  -0.2998
    -0.2083  -0.0692   0.0591   0.1959   0.3371   0.4781   0.5198   0.6188
     0.7251   0.7929   1.0780   1.1661   1.3065   1.4521   1.7163   1.9785
     2.0535   2.1386   2.2459   2.4300   2.6665   2.9073   3.1274   3.2442
     3.5831   3.7288   3.7967   4.1525   4.2670   4.3447   4.3707   4.4701
     4.6189   4.7784   4.9070   4.9661   5.0402   5.1116   5.2286   5.2547
     5.3125   5.3874   5.5260   5.6018   5.6533   5.6992   5.7973   5.8134
     5.8737   5.9397   6.0046   6.0355   6.2060   6.2308   6.2852   6.3663
     6.4113   6.4766   6.5468   6.5621   6.6071   6.6309   6.7085   6.7254
     6.8240   6.9220   6.9548   7.0664   7.1120   7.1356   7.1914   7.2454
     7.2997   7.5926   7.6278   7.6844   7.7851   7.8875   7.9245   7.9726
     8.0355   8.1042   8.1340   8.2247   8.3164   8.3877   8.4914   8.5862
     8.6833   8.7282

          k = 0.0541-0.0442 0.0000 ( 62079 PWs)   bands (ev):

   -12.6801  -8.3540  -7.5641  -7.2803  -7.0649  -6.6352  -6.4769  -6.2363
    -5.9971  -5.7762  -5.4856  -5.3809  -5.1710  -4.9596  -4.8407  -4.7531
    -4.6854  -4.6070  -4.5385  -4.4726  -4.4225  -4.3428  -4.2604  -4.1869
    -4.1151  -4.0847  -4.0755  -3.9729  -3.9239  -3.9043  -3.8547  -3.8524
    -3.8072  -3.7854  -3.7707  -3.7101  -3.6949  -3.6258  -3.5523  -3.5120
    -3.4753  -3.4629  -3.4331  -3.4071  -3.3756  -3.3485  -3.3267  -3.2882
    -3.2719  -3.2305  -3.1948  -3.1612  -3.1224  -3.0977  -3.0486  -3.0445
    -2.9998  -2.9650  -2.9387  -2.9141  -2.8839  -2.8459  -2.8319  -2.7756
    -2.7410  -2.7049  -2.6975  -2.6805  -2.6610  -2.6420  -2.6174  -2.5943
    -2.5657  -2.5486  -2.5206  -2.5084  -2.4798  -2.4725  -2.4474  -2.4156
    -2.3903  -2.3802  -2.3634  -2.3539  -2.3270  -2.3160  -2.2929  -2.2812
    -2.2475  -2.2253  -2.2177  -2.1999  -2.1780  -2.1607  -2.1426  -2.1310
    -2.0996  -2.0763  -2.0558  -2.0370  -2.0277  -2.0125  -1.9996  -1.9746
    -1.9627  -1.9379  -1.9090  -1.8956  -1.8739  -1.8562  -1.8392  -1.8135
    -1.7882  -1.7492  -1.7451  -1.7188  -1.7114  -1.6988  -1.6717  -1.6414
    -1.6153  -1.5990  -1.5947  -1.5742  -1.5527  -1.5395  -1.5291  -1.5158
    -1.4867  -1.4621  -1.4486  -1.4110  -1.3925  -1.3699  -1.3431  -1.3187
    -1.2996  -1.2898  -1.2736  -1.2435  -1.2087  -1.1880  -1.1753  -1.1619
    -1.1466  -1.1204  -1.1045  -1.0939  -1.0785  -1.0465  -1.0425  -1.0307
    -1.0079  -0.9857  -0.9654  -0.9433  -0.9355  -0.9096  -0.8927  -0.8864
    -0.8768  -0.8366  -0.8179  -0.7989  -0.7803  -0.7726  -0.7427  -0.7315
    -0.7189  -0.6798  -0.6413  -0.6305  -0.6109  -0.6050  -0.5921  -0.5828
    -0.5777  -0.5626  -0.5469  -0.5258  -0.5167  -0.5088  -0.4916  -0.4607
    -0.4476  -0.4262  -0.4168  -0.4041  -0.3901  -0.3556  -0.3189  -0.2998
    -0.2081  -0.0695   0.0589   0.1958   0.3378   0.4780   0.5200   0.6185
     0.7254   0.7929   1.0788   1.1657   1.3060   1.4516   1.7166   1.9779
     2.0531   2.1379   2.2461   2.4298   2.6660   2.9072   3.1285   3.2449
     3.5823   3.7288   3.7971   4.1526   4.2673   4.3441   4.3706   4.4710
     4.6187   4.7794   4.9067   4.9664   5.0403   5.1118   5.2287   5.2545
     5.3124   5.3871   5.5261   5.6016   5.6535   5.6992   5.7973   5.8138
     5.8734   5.9399   6.0047   6.0357   6.2057   6.2310   6.2853   6.3662
     6.4112   6.4763   6.5468   6.5618   6.6068   6.6314   6.7085   6.7251
     6.8242   6.9233   6.9550   7.0663   7.1118   7.1355   7.1907   7.2453
     7.2991   7.5928   7.6276   7.6836   7.7844   7.8872   7.9244   7.9723
     8.0356   8.1042   8.1341   8.2244   8.3166   8.3876   8.4910   8.5866
     8.6835   8.7289

     the Fermi energy is    -0.6703 ev

!    total energy              =   -3634.75676457 Ry
     Harris-Foulkes estimate   =   -3634.75676156 Ry
     estimated scf accuracy    <       0.00000027 Ry

     The total energy is the sum of the following terms:

     one-electron contribution =  -77375.04574842 Ry
     hartree contribution      =   39049.60053642 Ry
     xc contribution           =   -1509.68289194 Ry
     ewald contribution        =   36200.53110190 Ry
     electric field correction =       0.00000589 Ry
     smearing contrib. (-TS)   =      -0.15976841 Ry

     total magnetization       =    21.05 Bohr mag/cell
     absolute magnetization    =    24.37 Bohr mag/cell

     convergence has been achieved in  19 iterations

     Forces acting on atoms (Ry/au):


     negative rho (up, down):  7.560E-04 6.256E-04
     atom    1 type  1   force =    -0.00001014   -0.00013113    0.00072459
     atom    2 type  1   force =    -0.00061886    0.00028700    0.00124997
     atom    3 type  1   force =    -0.00041888   -0.00031153   -0.00080123
     atom    4 type  1   force =     0.00012086    0.00017409    0.00041007
     atom    5 type  1   force =     0.00088878    0.00035887    0.00000702
     atom    6 type  1   force =    -0.00060472   -0.00071928    0.00020212
     atom    7 type  1   force =    -0.00042378    0.00055649    0.00137513
     atom    8 type  1   force =    -0.00032159    0.00072151   -0.00016717
     atom    9 type  1   force =    -0.00026123    0.00013916   -0.00149769
     atom   10 type  1   force =    -0.00023406    0.00084666   -0.00029056
     atom   11 type  1   force =    -0.00028168   -0.00015688    0.00072230
     atom   12 type  1   force =    -0.00075363   -0.00047262   -0.00053868
     atom   13 type  1   force =     0.00011760    0.00025574   -0.00001843
     atom   14 type  1   force =    -0.00026691   -0.00042202   -0.00033311
     atom   15 type  1   force =    -0.00037991   -0.00028750   -0.00000467
     atom   16 type  1   force =    -0.00029942    0.00048524   -0.00013888
     atom   17 type  1   force =    -0.00012524    0.00020528    0.00035360
     atom   18 type  1   force =    -0.00064795   -0.00047369   -0.00014827
     atom   19 type  1   force =     0.00181847   -0.00119484   -0.00093768
     atom   20 type  1   force =     0.00199594    0.00111143   -0.00096058
     atom   21 type  1   force =     0.00097262   -0.00005104   -0.00452157
     atom   22 type  1   force =     0.00334176    0.00067617   -0.00151292
     atom   23 type  1   force =     0.00527121    0.00000939   -0.00204866
     atom   24 type  1   force =     0.00342842   -0.00056447   -0.00138779
     atom   25 type  1   force =    -0.00280684   -0.00136122   -0.01158391
     atom   26 type  1   force =    -0.00282175    0.00122919   -0.01154370
     atom   27 type  1   force =    -0.00289190    0.00001173   -0.01129071
     atom   28 type  1   force =    -0.00185185    0.00007156   -0.00992664
     atom   29 type  1   force =    -0.00209141   -0.00008463   -0.01064770
     atom   30 type  1   force =    -0.00184706    0.00001801   -0.00993674
     atom   31 type  1   force =    -0.00536369   -0.00026020    0.00326864
     atom   32 type  1   force =    -0.00534886    0.00016746    0.00324005
     atom   33 type  1   force =    -0.00542266    0.00009276    0.00337376
     atom   34 type  1   force =     0.00608972    0.00018077    0.02162108
     atom   35 type  1   force =     0.00610622   -0.00008305    0.02113918
     atom   36 type  1   force =     0.00608338   -0.00010259    0.02156264
     atom   37 type  2   force =    -0.00014097   -0.00092180    0.00098713

     Total force =     0.049646     Total SCF correction =     0.001714
 !ASE

     Writing output data file calc.save
 
     init_run     :     48.14s CPU     55.86s WALL (       1 calls)
     electrons    :  66073.35s CPU  76083.32s WALL (      20 calls)
     update_pot   :     90.02s CPU     94.52s WALL (      19 calls)
     forces       :   1515.75s CPU   1569.69s WALL (      20 calls)

     Called by init_run:
     wfcinit      :     27.44s CPU     33.52s WALL (       1 calls)
     potinit      :      1.72s CPU      1.90s WALL (       1 calls)

     Called by electrons:
     c_bands      :  40385.84s CPU  47840.01s WALL (     622 calls)
     sum_band     :  16261.86s CPU  18223.48s WALL (     622 calls)
     v_of_rho     :    349.77s CPU    405.08s WALL (     642 calls)
     newd         :   9258.20s CPU   9788.70s WALL (     642 calls)
     mix_rho      :     78.61s CPU     95.21s WALL (     622 calls)

     Called by c_bands:
     init_us_2    :    210.34s CPU    225.33s WALL (   12650 calls)
     cegterg      :  38936.18s CPU  46334.43s WALL (    6220 calls)

     Called by *egterg:
     h_psi        :  20634.98s CPU  26532.95s WALL (   17039 calls)
     s_psi        :   3721.40s CPU   3852.80s WALL (   17039 calls)
     g_psi        :     95.90s CPU     98.34s WALL (   10809 calls)
     cdiaghg      :   4597.85s CPU   4728.39s WALL (   16839 calls)

     Called by h_psi:
     add_vuspsi   :   3734.59s CPU   3860.51s WALL (   17039 calls)

     General routines
     calbec       :   5626.40s CPU   5785.68s WALL (   23459 calls)
     fft          :    368.25s CPU    425.65s WALL (   20082 calls)
     ffts         :      4.79s CPU      6.53s WALL (    2528 calls)
     fftw         :  10253.89s CPU  17189.15s WALL ( 9314310 calls)
     interpolate  :     42.71s CPU     58.89s WALL (    2528 calls)
     davcio       :      0.01s CPU      0.61s WALL (      10 calls)
 
     Parallel routines
     fft_scatter  :   5746.66s CPU   9581.41s WALL ( 9336920 calls)
 
     PWSCF        :    18h53m CPU       21h41m WALL

 
   This run was terminated on:   7: 0: 9  24Mar2018            

=------------------------------------------------------------------------------=
   JOB DONE.
=------------------------------------------------------------------------------=
