  python dir          : /home/vossj/suncat/lib/python2.7/site-packages/espresso
  espresso dir        : /home/vossj/suncat/esdld/espresso-dynpy-beef/bin
  pseudo dir          : /home/alatimer/bin/psp/esp_psp_w_gbrvRu/
  ase-espresso py git : ffa2778-git



     Program PWSCF v.5.1rc2 (svn rev. ) starts on 20Apr2017 at 21:37:14 

     This program is part of the open-source Quantum ESPRESSO suite
     for quantum simulation of materials; please cite
         "P. Giannozzi et al., J. Phys.:Condens. Matter 21 395502 (2009);
          URL http://www.quantum-espresso.org", 
     in publications or presentations arising from this work. More details at
     http://www.quantum-espresso.org/quote

     Parallel version (MPI), running on    16 processors
     R & G space division:  proc/nbgrp/npool/nimage =      16
     Reading input from pw.inp
     Message from routine read_cards :
     DEPRECATED: no units specified in CELL_PARAMETERS card

     Current dimensions of program PWSCF are:
     Max number of different atomic species (ntypx) = 10
     Max number of k-points (npk) =  40000
     Max angular momentum in pseudopotentials (lmaxx) =  3
     Presently no symmetry can be used with electric field


     IMPORTANT: XC functional enforced from input :
     Exchange-correlation      = RPBE ( 1  4 28  4 0)
     Any further DFT definition will be discarded
     Please, verify this is what you really want

               file Ni.UPF: wavefunction(s)  3D renormalized

     Subspace diagonalization in iterative solution of the eigenvalue problem:
     a serial algorithm will be used

     Found symmetry operation: I + ( -0.0000  0.3333  0.0000)
     This is a supercell, fractional translations are disabled
 
     Parallelization info
     --------------------
     sticks:   dense  smooth     PW     G-vecs:    dense   smooth      PW
     Min         386     154     42                68872    17389    2480
     Max         387     155     43                68885    17439    2491
     Sum        6181    2479    673              1102011   278611   39737
 
     Generating pointlists ...
     new r_m :   0.4125 (alat units)  0.7795 (a.u.) for type    1
     new r_m :   0.4125 (alat units)  0.7795 (a.u.) for type    2


     bravais-lattice index     =            0
     lattice parameter (alat)  =       1.8897  a.u.
     unit-cell volume          =    7046.4111 (a.u.)^3
     number of atoms/cell      =           45
     number of atomic types    =            2
     number of electrons       =       396.00
     number of Kohn-Sham states=          298
     kinetic-energy cutoff     =      44.0992  Ry
     charge density cutoff     =     440.9919  Ry
     convergence threshold     =      7.3E-07
     mixing beta               =       0.1000
     number of iterations used =           10  plain     mixing
     Exchange-correlation      = RPBE ( 1  4 28  4 0)
     nstep                     =           50


     celldm(1)=   1.889726  celldm(2)=   0.000000  celldm(3)=   0.000000
     celldm(4)=   0.000000  celldm(5)=   0.000000  celldm(6)=   0.000000

     crystal axes: (cart. coord. in units of alat)
               a(1) = (   7.548011   0.000000   0.000000 )  
               a(2) = (  -3.774005   6.536769   0.000000 )  
               a(3) = (   0.000000   0.000000  21.162925 )  

     reciprocal axes: (cart. coord. in units 2 pi/alat)
               b(1) = (  0.132485  0.076490  0.000000 )  
               b(2) = (  0.000000  0.152981  0.000000 )  
               b(3) = (  0.000000  0.000000  0.047252 )  


     PseudoPot. # 1 for Ni read from file:
     /home/alatimer/bin/psp/esp_psp_w_gbrvRu/Ni.UPF
     MD5 check sum: 8b2449ee0060d9c33484ccd47bb60870
     Pseudo is Ultrasoft + core correction, Zval = 10.0
     Generated using "atomic" code by A. Dal Corso  v.5.0.2 svn rev. 9415
     Using radial grid of 1195 points,  6 beta functions with: 
                l(1) =   0
                l(2) =   0
                l(3) =   1
                l(4) =   1
                l(5) =   2
                l(6) =   2
     Q(r) pseudized with 0 coefficients 


     PseudoPot. # 2 for  C read from file:
     /home/alatimer/bin/psp/esp_psp_w_gbrvRu/C.UPF
     MD5 check sum: ab446d787031eba755f1d5ee46644bb0
     Pseudo is Ultrasoft + core correction, Zval =  4.0
     Generated using "atomic" code by A. Dal Corso  v.5.0.2 svn rev. 9415
     Using radial grid of 1073 points,  4 beta functions with: 
                l(1) =   0
                l(2) =   0
                l(3) =   1
                l(4) =   1
     Q(r) pseudized with 0 coefficients 


     atomic species   valence    mass     pseudopotential
        Ni1           10.00    58.69340     Ni( 1.00)
        C1             4.00    12.01100      C( 1.00)

     Starting magnetic structure 
     atomic species   magnetization
        Ni1          0.300
        C1           0.750

     No symmetry found



   Cartesian axes

     site n.     atom                  positions (alat units)
         1           Ni1 tau(   1) = (   0.0000000   0.0000000   7.5000000  )
         2           Ni1 tau(   2) = (   1.2580018   0.7263077   9.5543084  )
         3           Ni1 tau(   3) = (   0.0000000   1.4526154  11.6086168  )
         4           Ni1 tau(   4) = (   1.2580018   2.1789231  13.6629252  )
         5           Ni1 tau(   5) = (  -1.2580018   2.1789231   7.5000000  )
         6           Ni1 tau(   6) = (   0.0000000   2.9052308   9.5543084  )
         7           Ni1 tau(   7) = (  -1.2580018   3.6315385  11.6086168  )
         8           Ni1 tau(   8) = (  -0.0000000   4.3578462  13.6629252  )
         9           Ni1 tau(   9) = (  -2.5160037   4.3578462   7.5000000  )
        10           Ni1 tau(  10) = (  -1.2580018   5.0841539   9.5543084  )
        11           Ni1 tau(  11) = (  -2.5160037   5.8104616  11.6086168  )
        12           Ni1 tau(  12) = (  -1.2580018   6.5367693  13.6629252  )
        13           Ni1 tau(  13) = (   2.5160037   0.0000000   7.5000000  )
        14           Ni1 tau(  14) = (   3.7740055   0.7263077   9.5543084  )
        15           Ni1 tau(  15) = (   2.5160037   1.4526154  11.6086168  )
        16           Ni1 tau(  16) = (   3.7740055   2.1789231  13.6629252  )
        17           Ni1 tau(  17) = (   1.2580018   2.1789231   7.5000000  )
        18           Ni1 tau(  18) = (   2.5160037   2.9052308   9.5543084  )
        19           Ni1 tau(  19) = (   1.2580018   3.6315385  11.6086168  )
        20           Ni1 tau(  20) = (   2.5160037   4.3578462  13.6629252  )
        21           Ni1 tau(  21) = (  -0.0000000   4.3578462   7.5000000  )
        22           Ni1 tau(  22) = (   1.2580018   5.0841539   9.5543084  )
        23           Ni1 tau(  23) = (  -0.0000000   5.8104616  11.6086168  )
        24           Ni1 tau(  24) = (   1.2580018   6.5367693  13.6629252  )
        25           Ni1 tau(  25) = (   5.0320073   0.0000000   7.5000000  )
        26           Ni1 tau(  26) = (   6.2900092   0.7263077   9.5543084  )
        27           Ni1 tau(  27) = (   5.0320073   1.4526154  11.6086168  )
        28           Ni1 tau(  28) = (   6.2900092   2.1789231  13.6629252  )
        29           Ni1 tau(  29) = (   3.7740055   2.1789231   7.5000000  )
        30           Ni1 tau(  30) = (   5.0320073   2.9052308   9.5543084  )
        31           Ni1 tau(  31) = (   3.7740055   3.6315385  11.6086168  )
        32           Ni1 tau(  32) = (   5.0320073   4.3578462  13.6629252  )
        33           Ni1 tau(  33) = (   2.5160037   4.3578462   7.5000000  )
        34           Ni1 tau(  34) = (   3.7740055   5.0841539   9.5543084  )
        35           Ni1 tau(  35) = (   2.5160037   5.8104616  11.6086168  )
        36           Ni1 tau(  36) = (   3.7740055   6.5367693  13.6629252  )
        37           C1  tau(  37) = (   2.5160037   1.5000000  14.9629252  )
        38           C1  tau(  38) = (   5.0320073   1.5000000  14.9629252  )
        39           C1  tau(  39) = (  -0.0000000   1.5000000  14.9629252  )
        40           C1  tau(  40) = (   2.5160037   5.8578462  14.9629252  )
        41           C1  tau(  41) = (  -2.5160037   5.8578462  14.9629252  )
        42           C1  tau(  42) = (   3.7740055   3.6789231  14.9629252  )
        43           C1  tau(  43) = (  -1.2580018   3.6789231  14.9629252  )
        44           C1  tau(  44) = (   0.0000000   5.8578462  14.9629252  )
        45           C1  tau(  45) = (   1.2580018   3.6789231  14.9629252  )

     number of k points=    10  Fermi-Dirac smearing, width (Ry)=  0.0073
                       cart. coord. in units 2pi/alat
        k(    1) = (   0.0000000   0.0000000   0.0000000), wk =   0.1111111
        k(    2) = (   0.0000000   0.0509936   0.0000000), wk =   0.2222222
        k(    3) = (   0.0441617   0.0254968   0.0000000), wk =   0.2222222
        k(    4) = (   0.0441617   0.0764904   0.0000000), wk =   0.2222222
        k(    5) = (   0.0441617  -0.0254968   0.0000000), wk =   0.2222222
        k(    6) = (   0.0000000   0.0000000   0.0000000), wk =   0.1111111
        k(    7) = (   0.0000000   0.0509936   0.0000000), wk =   0.2222222
        k(    8) = (   0.0441617   0.0254968   0.0000000), wk =   0.2222222
        k(    9) = (   0.0441617   0.0764904   0.0000000), wk =   0.2222222
        k(   10) = (   0.0441617  -0.0254968   0.0000000), wk =   0.2222222

     Dense  grid:  1102011 G-vectors     FFT dimensions: (  96,  96, 270)

     Smooth grid:   278611 G-vectors     FFT dimensions: (  64,  64, 180)

     Largest allocated arrays     est. size (Mb)     dimensions
        Kohn-Sham Wavefunctions         9.93 Mb     (    2183,  298)
        NL pseudopotentials            23.98 Mb     (    2183,  720)
        Each V/rho on FFT grid          4.78 Mb     (  156672,   2)
        Each G-vector array             0.53 Mb     (   68874)
        G-vector shells                 0.19 Mb     (   24563)
     Largest temporary arrays     est. size (Mb)     dimensions
        Auxiliary wavefunctions        39.71 Mb     (    2183, 1192)
        Each subspace H/S matrix       21.68 Mb     (    1192, 1192)
        Each <psi_i|beta_j> matrix      3.27 Mb     (     720,  298)
        Arrays for rho mixing          23.91 Mb     (  156672,   10)

     Initial potential from superposition of free atoms
     Check: negative starting charge=(component1):   -0.000295
     Check: negative starting charge=(component2):   -0.000169

     starting charge  395.99059, renormalised to  396.00000

     negative rho (up, down):  2.946E-04 1.685E-04
 
     Adding external electric field

     Computed dipole along edir(3) : 
        Dipole               -0.0040 Ry au,         -0.0101 Debye
        Dipole field         -0.0000 Ry au
 
        Potential amp.        0.0006 Ry
        Total length         38.9923 bohr
 
 
     Adding external electric field

     Computed dipole along edir(3) : 
        Dipole               -0.0040 Ry au,         -0.0101 Debye
        Dipole field         -0.0000 Ry au
 
        Potential amp.        0.0006 Ry
        Total length         38.9923 bohr
 
     Starting wfc are  360 randomized atomic wfcs

     total cpu time spent up to now is       34.7 secs

     Self-consistent Calculation

     iteration #  1     ecut=    44.10 Ry     beta=0.10
     Davidson diagonalization with overlap
     ethr =  1.00E-02,  avg # of iterations =  7.5

     negative rho (up, down):  2.446E-04 1.407E-04
 
     Adding external electric field

     Computed dipole along edir(3) : 
        Dipole                0.3725 Ry au,          0.9467 Debye
        Dipole field          0.0007 Ry au
 
        Potential amp.       -0.0518 Ry
        Total length         38.9923 bohr
 
 
     Adding external electric field

     Computed dipole along edir(3) : 
        Dipole                0.3725 Ry au,          0.9467 Debye
        Dipole field          0.0007 Ry au
 
        Potential amp.       -0.0518 Ry
        Total length         38.9923 bohr
 
 
     Magnetic moment per site:
     atom:    1    charge:    3.9479    magn:    1.1267    constr:    0.0000
     atom:    2    charge:    3.9689    magn:    1.1105    constr:    0.0000
     atom:    3    charge:    3.9747    magn:    1.1057    constr:    0.0000
     atom:    4    charge:    3.9559    magn:    1.1051    constr:    0.0000
     atom:    5    charge:    3.9479    magn:    1.1267    constr:    0.0000
     atom:    6    charge:    3.9689    magn:    1.1105    constr:    0.0000
     atom:    7    charge:    3.9748    magn:    1.1057    constr:    0.0000
     atom:    8    charge:    3.9559    magn:    1.1051    constr:    0.0000
     atom:    9    charge:    3.9479    magn:    1.1267    constr:    0.0000
     atom:   10    charge:    3.9689    magn:    1.1104    constr:    0.0000
     atom:   11    charge:    3.9747    magn:    1.1057    constr:    0.0000
     atom:   12    charge:    3.9559    magn:    1.1051    constr:    0.0000
     atom:   13    charge:    3.9479    magn:    1.1267    constr:    0.0000
     atom:   14    charge:    3.9689    magn:    1.1105    constr:    0.0000
     atom:   15    charge:    3.9747    magn:    1.1057    constr:    0.0000
     atom:   16    charge:    3.9559    magn:    1.1051    constr:    0.0000
     atom:   17    charge:    3.9479    magn:    1.1267    constr:    0.0000
     atom:   18    charge:    3.9689    magn:    1.1105    constr:    0.0000
     atom:   19    charge:    3.9747    magn:    1.1057    constr:    0.0000
     atom:   20    charge:    3.9559    magn:    1.1051    constr:    0.0000
     atom:   21    charge:    3.9479    magn:    1.1267    constr:    0.0000
     atom:   22    charge:    3.9689    magn:    1.1104    constr:    0.0000
     atom:   23    charge:    3.9747    magn:    1.1057    constr:    0.0000
     atom:   24    charge:    3.9559    magn:    1.1051    constr:    0.0000
     atom:   25    charge:    3.9479    magn:    1.1267    constr:    0.0000
     atom:   26    charge:    3.9689    magn:    1.1104    constr:    0.0000
     atom:   27    charge:    3.9748    magn:    1.1057    constr:    0.0000
     atom:   28    charge:    3.9559    magn:    1.1051    constr:    0.0000
     atom:   29    charge:    3.9479    magn:    1.1267    constr:    0.0000
     atom:   30    charge:    3.9689    magn:    1.1105    constr:    0.0000
     atom:   31    charge:    3.9748    magn:    1.1057    constr:    0.0000
     atom:   32    charge:    3.9559    magn:    1.1051    constr:    0.0000
     atom:   33    charge:    3.9479    magn:    1.1267    constr:    0.0000
     atom:   34    charge:    3.9689    magn:    1.1104    constr:    0.0000
     atom:   35    charge:    3.9747    magn:    1.1057    constr:    0.0000
     atom:   36    charge:    3.9559    magn:    1.1051    constr:    0.0000
     atom:   37    charge:    0.5693    magn:    0.4001    constr:    0.0000
     atom:   38    charge:    0.5693    magn:    0.4001    constr:    0.0000
     atom:   39    charge:    0.5693    magn:    0.4001    constr:    0.0000
     atom:   40    charge:    0.5693    magn:    0.4001    constr:    0.0000
     atom:   41    charge:    0.5693    magn:    0.4001    constr:    0.0000
     atom:   42    charge:    0.5693    magn:    0.4001    constr:    0.0000
     atom:   43    charge:    0.5693    magn:    0.4001    constr:    0.0000
     atom:   44    charge:    0.5693    magn:    0.4001    constr:    0.0000
     atom:   45    charge:    0.5693    magn:    0.4001    constr:    0.0000

     total cpu time spent up to now is      170.9 secs

     total energy              =   -3724.06544874 Ry
     Harris-Foulkes estimate   =   -3725.29246504 Ry
     estimated scf accuracy    <      13.69272083 Ry

     total magnetization       =    41.49 Bohr mag/cell
     absolute magnetization    =    41.51 Bohr mag/cell

     iteration #  2     ecut=    44.10 Ry     beta=0.10
     Davidson diagonalization with overlap
     ethr =  3.46E-03,  avg # of iterations =  2.8

     negative rho (up, down):  2.412E-04 1.583E-04
 
     Adding external electric field

     Computed dipole along edir(3) : 
        Dipole               -0.8804 Ry au,         -2.2377 Debye
        Dipole field         -0.0016 Ry au
 
        Potential amp.        0.1224 Ry
        Total length         38.9923 bohr
 
 
     Adding external electric field

     Computed dipole along edir(3) : 
        Dipole               -0.8804 Ry au,         -2.2377 Debye
        Dipole field         -0.0016 Ry au
 
        Potential amp.        0.1224 Ry
        Total length         38.9923 bohr
 
 
     Magnetic moment per site:
     atom:    1    charge:    3.9602    magn:    1.1064    constr:    0.0000
     atom:    2    charge:    3.9571    magn:    1.1082    constr:    0.0000
     atom:    3    charge:    3.9574    magn:    1.1073    constr:    0.0000
     atom:    4    charge:    3.9639    magn:    1.0890    constr:    0.0000
     atom:    5    charge:    3.9602    magn:    1.1064    constr:    0.0000
     atom:    6    charge:    3.9571    magn:    1.1082    constr:    0.0000
     atom:    7    charge:    3.9574    magn:    1.1074    constr:    0.0000
     atom:    8    charge:    3.9639    magn:    1.0890    constr:    0.0000
     atom:    9    charge:    3.9602    magn:    1.1064    constr:    0.0000
     atom:   10    charge:    3.9571    magn:    1.1082    constr:    0.0000
     atom:   11    charge:    3.9574    magn:    1.1073    constr:    0.0000
     atom:   12    charge:    3.9639    magn:    1.0890    constr:    0.0000
     atom:   13    charge:    3.9602    magn:    1.1064    constr:    0.0000
     atom:   14    charge:    3.9571    magn:    1.1082    constr:    0.0000
     atom:   15    charge:    3.9574    magn:    1.1073    constr:    0.0000
     atom:   16    charge:    3.9639    magn:    1.0890    constr:    0.0000
     atom:   17    charge:    3.9602    magn:    1.1064    constr:    0.0000
     atom:   18    charge:    3.9571    magn:    1.1082    constr:    0.0000
     atom:   19    charge:    3.9574    magn:    1.1074    constr:    0.0000
     atom:   20    charge:    3.9639    magn:    1.0890    constr:    0.0000
     atom:   21    charge:    3.9602    magn:    1.1064    constr:    0.0000
     atom:   22    charge:    3.9571    magn:    1.1082    constr:    0.0000
     atom:   23    charge:    3.9574    magn:    1.1073    constr:    0.0000
     atom:   24    charge:    3.9639    magn:    1.0890    constr:    0.0000
     atom:   25    charge:    3.9602    magn:    1.1064    constr:    0.0000
     atom:   26    charge:    3.9571    magn:    1.1082    constr:    0.0000
     atom:   27    charge:    3.9574    magn:    1.1074    constr:    0.0000
     atom:   28    charge:    3.9639    magn:    1.0890    constr:    0.0000
     atom:   29    charge:    3.9602    magn:    1.1064    constr:    0.0000
     atom:   30    charge:    3.9571    magn:    1.1082    constr:    0.0000
     atom:   31    charge:    3.9574    magn:    1.1074    constr:    0.0000
     atom:   32    charge:    3.9639    magn:    1.0890    constr:    0.0000
     atom:   33    charge:    3.9602    magn:    1.1064    constr:    0.0000
     atom:   34    charge:    3.9571    magn:    1.1082    constr:    0.0000
     atom:   35    charge:    3.9574    magn:    1.1073    constr:    0.0000
     atom:   36    charge:    3.9639    magn:    1.0890    constr:    0.0000
     atom:   37    charge:    0.5744    magn:    0.3979    constr:    0.0000
     atom:   38    charge:    0.5744    magn:    0.3979    constr:    0.0000
     atom:   39    charge:    0.5745    magn:    0.3979    constr:    0.0000
     atom:   40    charge:    0.5744    magn:    0.3979    constr:    0.0000
     atom:   41    charge:    0.5744    magn:    0.3979    constr:    0.0000
     atom:   42    charge:    0.5744    magn:    0.3979    constr:    0.0000
     atom:   43    charge:    0.5744    magn:    0.3979    constr:    0.0000
     atom:   44    charge:    0.5745    magn:    0.3979    constr:    0.0000
     atom:   45    charge:    0.5744    magn:    0.3979    constr:    0.0000

     total cpu time spent up to now is      252.5 secs

     total energy              =   -3722.98190232 Ry
     Harris-Foulkes estimate   =   -3727.82168666 Ry
     estimated scf accuracy    <     122.03424109 Ry

     total magnetization       =    58.94 Bohr mag/cell
     absolute magnetization    =    58.99 Bohr mag/cell

     iteration #  3     ecut=    44.10 Ry     beta=0.10
     Davidson diagonalization with overlap
     ethr =  3.46E-03,  avg # of iterations =  2.0

     negative rho (up, down):  2.539E-04 1.923E-04
 
     Adding external electric field

     Computed dipole along edir(3) : 
        Dipole               -0.0998 Ry au,         -0.2538 Debye
        Dipole field         -0.0002 Ry au
 
        Potential amp.        0.0139 Ry
        Total length         38.9923 bohr
 
 
     Adding external electric field

     Computed dipole along edir(3) : 
        Dipole               -0.0998 Ry au,         -0.2538 Debye
        Dipole field         -0.0002 Ry au
 
        Potential amp.        0.0139 Ry
        Total length         38.9923 bohr
 
 
     Magnetic moment per site:
     atom:    1    charge:    3.9644    magn:    1.0986    constr:    0.0000
     atom:    2    charge:    3.9582    magn:    1.1027    constr:    0.0000
     atom:    3    charge:    3.9555    magn:    1.1045    constr:    0.0000
     atom:    4    charge:    3.9614    magn:    1.0844    constr:    0.0000
     atom:    5    charge:    3.9644    magn:    1.0986    constr:    0.0000
     atom:    6    charge:    3.9582    magn:    1.1027    constr:    0.0000
     atom:    7    charge:    3.9556    magn:    1.1045    constr:    0.0000
     atom:    8    charge:    3.9614    magn:    1.0844    constr:    0.0000
     atom:    9    charge:    3.9644    magn:    1.0986    constr:    0.0000
     atom:   10    charge:    3.9582    magn:    1.1027    constr:    0.0000
     atom:   11    charge:    3.9555    magn:    1.1045    constr:    0.0000
     atom:   12    charge:    3.9614    magn:    1.0844    constr:    0.0000
     atom:   13    charge:    3.9644    magn:    1.0986    constr:    0.0000
     atom:   14    charge:    3.9582    magn:    1.1027    constr:    0.0000
     atom:   15    charge:    3.9556    magn:    1.1045    constr:    0.0000
     atom:   16    charge:    3.9614    magn:    1.0844    constr:    0.0000
     atom:   17    charge:    3.9644    magn:    1.0986    constr:    0.0000
     atom:   18    charge:    3.9582    magn:    1.1027    constr:    0.0000
     atom:   19    charge:    3.9556    magn:    1.1045    constr:    0.0000
     atom:   20    charge:    3.9614    magn:    1.0844    constr:    0.0000
     atom:   21    charge:    3.9644    magn:    1.0986    constr:    0.0000
     atom:   22    charge:    3.9582    magn:    1.1027    constr:    0.0000
     atom:   23    charge:    3.9556    magn:    1.1045    constr:    0.0000
     atom:   24    charge:    3.9614    magn:    1.0844    constr:    0.0000
     atom:   25    charge:    3.9644    magn:    1.0986    constr:    0.0000
     atom:   26    charge:    3.9582    magn:    1.1027    constr:    0.0000
     atom:   27    charge:    3.9556    magn:    1.1045    constr:    0.0000
     atom:   28    charge:    3.9614    magn:    1.0844    constr:    0.0000
     atom:   29    charge:    3.9644    magn:    1.0986    constr:    0.0000
     atom:   30    charge:    3.9582    magn:    1.1027    constr:    0.0000
     atom:   31    charge:    3.9556    magn:    1.1045    constr:    0.0000
     atom:   32    charge:    3.9614    magn:    1.0844    constr:    0.0000
     atom:   33    charge:    3.9644    magn:    1.0986    constr:    0.0000
     atom:   34    charge:    3.9582    magn:    1.1027    constr:    0.0000
     atom:   35    charge:    3.9555    magn:    1.1045    constr:    0.0000
     atom:   36    charge:    3.9614    magn:    1.0844    constr:    0.0000
     atom:   37    charge:    0.5746    magn:    0.3965    constr:    0.0000
     atom:   38    charge:    0.5746    magn:    0.3965    constr:    0.0000
     atom:   39    charge:    0.5746    magn:    0.3965    constr:    0.0000
     atom:   40    charge:    0.5746    magn:    0.3965    constr:    0.0000
     atom:   41    charge:    0.5746    magn:    0.3965    constr:    0.0000
     atom:   42    charge:    0.5746    magn:    0.3965    constr:    0.0000
     atom:   43    charge:    0.5746    magn:    0.3965    constr:    0.0000
     atom:   44    charge:    0.5746    magn:    0.3965    constr:    0.0000
     atom:   45    charge:    0.5746    magn:    0.3965    constr:    0.0000

     total cpu time spent up to now is      330.2 secs

     total energy              =   -3725.11165339 Ry
     Harris-Foulkes estimate   =   -3726.17675016 Ry
     estimated scf accuracy    <      85.29362060 Ry

     total magnetization       =    41.10 Bohr mag/cell
     absolute magnetization    =    41.13 Bohr mag/cell

     iteration #  4     ecut=    44.10 Ry     beta=0.10
     Davidson diagonalization with overlap
     ethr =  3.46E-03,  avg # of iterations =  1.0

     negative rho (up, down):  2.386E-04 1.694E-04
 
     Adding external electric field

     Computed dipole along edir(3) : 
        Dipole               -0.5376 Ry au,         -1.3665 Debye
        Dipole field         -0.0010 Ry au
 
        Potential amp.        0.0748 Ry
        Total length         38.9923 bohr
 
 
     Adding external electric field

     Computed dipole along edir(3) : 
        Dipole               -0.5376 Ry au,         -1.3665 Debye
        Dipole field         -0.0010 Ry au
 
        Potential amp.        0.0748 Ry
        Total length         38.9923 bohr
 
 
     Magnetic moment per site:
     atom:    1    charge:    3.9769    magn:    1.0071    constr:    0.0000
     atom:    2    charge:    3.9581    magn:    1.0164    constr:    0.0000
     atom:    3    charge:    3.9648    magn:    1.0113    constr:    0.0000
     atom:    4    charge:    3.9572    magn:    0.9679    constr:    0.0000
     atom:    5    charge:    3.9769    magn:    1.0070    constr:    0.0000
     atom:    6    charge:    3.9581    magn:    1.0164    constr:    0.0000
     atom:    7    charge:    3.9648    magn:    1.0113    constr:    0.0000
     atom:    8    charge:    3.9571    magn:    0.9679    constr:    0.0000
     atom:    9    charge:    3.9769    magn:    1.0070    constr:    0.0000
     atom:   10    charge:    3.9581    magn:    1.0164    constr:    0.0000
     atom:   11    charge:    3.9648    magn:    1.0113    constr:    0.0000
     atom:   12    charge:    3.9571    magn:    0.9679    constr:    0.0000
     atom:   13    charge:    3.9769    magn:    1.0070    constr:    0.0000
     atom:   14    charge:    3.9581    magn:    1.0164    constr:    0.0000
     atom:   15    charge:    3.9648    magn:    1.0113    constr:    0.0000
     atom:   16    charge:    3.9571    magn:    0.9679    constr:    0.0000
     atom:   17    charge:    3.9769    magn:    1.0070    constr:    0.0000
     atom:   18    charge:    3.9581    magn:    1.0164    constr:    0.0000
     atom:   19    charge:    3.9648    magn:    1.0113    constr:    0.0000
     atom:   20    charge:    3.9572    magn:    0.9679    constr:    0.0000
     atom:   21    charge:    3.9769    magn:    1.0070    constr:    0.0000
     atom:   22    charge:    3.9581    magn:    1.0164    constr:    0.0000
     atom:   23    charge:    3.9648    magn:    1.0113    constr:    0.0000
     atom:   24    charge:    3.9572    magn:    0.9679    constr:    0.0000
     atom:   25    charge:    3.9769    magn:    1.0071    constr:    0.0000
     atom:   26    charge:    3.9581    magn:    1.0164    constr:    0.0000
     atom:   27    charge:    3.9648    magn:    1.0113    constr:    0.0000
     atom:   28    charge:    3.9571    magn:    0.9679    constr:    0.0000
     atom:   29    charge:    3.9769    magn:    1.0070    constr:    0.0000
     atom:   30    charge:    3.9581    magn:    1.0164    constr:    0.0000
     atom:   31    charge:    3.9648    magn:    1.0113    constr:    0.0000
     atom:   32    charge:    3.9571    magn:    0.9679    constr:    0.0000
     atom:   33    charge:    3.9769    magn:    1.0070    constr:    0.0000
     atom:   34    charge:    3.9581    magn:    1.0164    constr:    0.0000
     atom:   35    charge:    3.9648    magn:    1.0113    constr:    0.0000
     atom:   36    charge:    3.9571    magn:    0.9679    constr:    0.0000
     atom:   37    charge:    0.5793    magn:    0.3704    constr:    0.0000
     atom:   38    charge:    0.5793    magn:    0.3704    constr:    0.0000
     atom:   39    charge:    0.5793    magn:    0.3704    constr:    0.0000
     atom:   40    charge:    0.5793    magn:    0.3704    constr:    0.0000
     atom:   41    charge:    0.5793    magn:    0.3704    constr:    0.0000
     atom:   42    charge:    0.5793    magn:    0.3704    constr:    0.0000
     atom:   43    charge:    0.5793    magn:    0.3704    constr:    0.0000
     atom:   44    charge:    0.5793    magn:    0.3704    constr:    0.0000
     atom:   45    charge:    0.5793    magn:    0.3704    constr:    0.0000

     total cpu time spent up to now is      403.4 secs

     total energy              =   -3726.19948077 Ry
     Harris-Foulkes estimate   =   -3725.69707285 Ry
     estimated scf accuracy    <       7.23138068 Ry

     total magnetization       =    44.06 Bohr mag/cell
     absolute magnetization    =    44.14 Bohr mag/cell

     iteration #  5     ecut=    44.10 Ry     beta=0.10
     Davidson diagonalization with overlap
     ethr =  1.83E-03,  avg # of iterations =  1.0

     negative rho (up, down):  2.350E-04 1.691E-04
 
     Adding external electric field

     Computed dipole along edir(3) : 
        Dipole               -0.6151 Ry au,         -1.5633 Debye
        Dipole field         -0.0011 Ry au
 
        Potential amp.        0.0855 Ry
        Total length         38.9923 bohr
 
 
     Adding external electric field

     Computed dipole along edir(3) : 
        Dipole               -0.6151 Ry au,         -1.5633 Debye
        Dipole field         -0.0011 Ry au
 
        Potential amp.        0.0855 Ry
        Total length         38.9923 bohr
 
 
     Magnetic moment per site:
     atom:    1    charge:    3.9800    magn:    0.9205    constr:    0.0000
     atom:    2    charge:    3.9643    magn:    0.9277    constr:    0.0000
     atom:    3    charge:    3.9632    magn:    0.9279    constr:    0.0000
     atom:    4    charge:    3.9593    magn:    0.8453    constr:    0.0000
     atom:    5    charge:    3.9799    magn:    0.9205    constr:    0.0000
     atom:    6    charge:    3.9642    magn:    0.9277    constr:    0.0000
     atom:    7    charge:    3.9632    magn:    0.9279    constr:    0.0000
     atom:    8    charge:    3.9593    magn:    0.8453    constr:    0.0000
     atom:    9    charge:    3.9799    magn:    0.9205    constr:    0.0000
     atom:   10    charge:    3.9643    magn:    0.9276    constr:    0.0000
     atom:   11    charge:    3.9632    magn:    0.9279    constr:    0.0000
     atom:   12    charge:    3.9593    magn:    0.8453    constr:    0.0000
     atom:   13    charge:    3.9800    magn:    0.9205    constr:    0.0000
     atom:   14    charge:    3.9643    magn:    0.9277    constr:    0.0000
     atom:   15    charge:    3.9632    magn:    0.9280    constr:    0.0000
     atom:   16    charge:    3.9593    magn:    0.8453    constr:    0.0000
     atom:   17    charge:    3.9799    magn:    0.9206    constr:    0.0000
     atom:   18    charge:    3.9642    magn:    0.9277    constr:    0.0000
     atom:   19    charge:    3.9632    magn:    0.9279    constr:    0.0000
     atom:   20    charge:    3.9593    magn:    0.8453    constr:    0.0000
     atom:   21    charge:    3.9800    magn:    0.9205    constr:    0.0000
     atom:   22    charge:    3.9642    magn:    0.9276    constr:    0.0000
     atom:   23    charge:    3.9632    magn:    0.9279    constr:    0.0000
     atom:   24    charge:    3.9593    magn:    0.8453    constr:    0.0000
     atom:   25    charge:    3.9800    magn:    0.9205    constr:    0.0000
     atom:   26    charge:    3.9643    magn:    0.9276    constr:    0.0000
     atom:   27    charge:    3.9632    magn:    0.9279    constr:    0.0000
     atom:   28    charge:    3.9593    magn:    0.8453    constr:    0.0000
     atom:   29    charge:    3.9799    magn:    0.9205    constr:    0.0000
     atom:   30    charge:    3.9642    magn:    0.9277    constr:    0.0000
     atom:   31    charge:    3.9632    magn:    0.9279    constr:    0.0000
     atom:   32    charge:    3.9593    magn:    0.8453    constr:    0.0000
     atom:   33    charge:    3.9799    magn:    0.9205    constr:    0.0000
     atom:   34    charge:    3.9643    magn:    0.9277    constr:    0.0000
     atom:   35    charge:    3.9632    magn:    0.9279    constr:    0.0000
     atom:   36    charge:    3.9593    magn:    0.8453    constr:    0.0000
     atom:   37    charge:    0.5823    magn:    0.3429    constr:    0.0000
     atom:   38    charge:    0.5823    magn:    0.3429    constr:    0.0000
     atom:   39    charge:    0.5823    magn:    0.3429    constr:    0.0000
     atom:   40    charge:    0.5823    magn:    0.3429    constr:    0.0000
     atom:   41    charge:    0.5823    magn:    0.3429    constr:    0.0000
     atom:   42    charge:    0.5823    magn:    0.3429    constr:    0.0000
     atom:   43    charge:    0.5823    magn:    0.3429    constr:    0.0000
     atom:   44    charge:    0.5823    magn:    0.3429    constr:    0.0000
     atom:   45    charge:    0.5823    magn:    0.3429    constr:    0.0000

     total cpu time spent up to now is      476.2 secs

     total energy              =   -3726.84055806 Ry
     Harris-Foulkes estimate   =   -3726.31548921 Ry
     estimated scf accuracy    <       3.29819138 Ry

     total magnetization       =    41.61 Bohr mag/cell
     absolute magnetization    =    41.84 Bohr mag/cell

     iteration #  6     ecut=    44.10 Ry     beta=0.10
     Davidson diagonalization with overlap
     ethr =  8.33E-04,  avg # of iterations =  3.2

     negative rho (up, down):  2.492E-04 1.912E-04
 
     Adding external electric field

     Computed dipole along edir(3) : 
        Dipole               -0.4151 Ry au,         -1.0550 Debye
        Dipole field         -0.0007 Ry au
 
        Potential amp.        0.0577 Ry
        Total length         38.9923 bohr
 
 
     Adding external electric field

     Computed dipole along edir(3) : 
        Dipole               -0.4151 Ry au,         -1.0550 Debye
        Dipole field         -0.0007 Ry au
 
        Potential amp.        0.0577 Ry
        Total length         38.9923 bohr
 
 
     Magnetic moment per site:
     atom:    1    charge:    3.9792    magn:    0.8262    constr:    0.0000
     atom:    2    charge:    3.9605    magn:    0.8387    constr:    0.0000
     atom:    3    charge:    3.9683    magn:    0.8309    constr:    0.0000
     atom:    4    charge:    3.9581    magn:    0.7067    constr:    0.0000
     atom:    5    charge:    3.9793    magn:    0.8262    constr:    0.0000
     atom:    6    charge:    3.9605    magn:    0.8387    constr:    0.0000
     atom:    7    charge:    3.9683    magn:    0.8310    constr:    0.0000
     atom:    8    charge:    3.9581    magn:    0.7067    constr:    0.0000
     atom:    9    charge:    3.9793    magn:    0.8262    constr:    0.0000
     atom:   10    charge:    3.9605    magn:    0.8387    constr:    0.0000
     atom:   11    charge:    3.9683    magn:    0.8309    constr:    0.0000
     atom:   12    charge:    3.9581    magn:    0.7066    constr:    0.0000
     atom:   13    charge:    3.9792    magn:    0.8262    constr:    0.0000
     atom:   14    charge:    3.9605    magn:    0.8387    constr:    0.0000
     atom:   15    charge:    3.9683    magn:    0.8309    constr:    0.0000
     atom:   16    charge:    3.9581    magn:    0.7067    constr:    0.0000
     atom:   17    charge:    3.9793    magn:    0.8261    constr:    0.0000
     atom:   18    charge:    3.9606    magn:    0.8386    constr:    0.0000
     atom:   19    charge:    3.9683    magn:    0.8309    constr:    0.0000
     atom:   20    charge:    3.9581    magn:    0.7067    constr:    0.0000
     atom:   21    charge:    3.9793    magn:    0.8262    constr:    0.0000
     atom:   22    charge:    3.9605    magn:    0.8387    constr:    0.0000
     atom:   23    charge:    3.9683    magn:    0.8309    constr:    0.0000
     atom:   24    charge:    3.9581    magn:    0.7067    constr:    0.0000
     atom:   25    charge:    3.9792    magn:    0.8263    constr:    0.0000
     atom:   26    charge:    3.9605    magn:    0.8387    constr:    0.0000
     atom:   27    charge:    3.9683    magn:    0.8309    constr:    0.0000
     atom:   28    charge:    3.9581    magn:    0.7066    constr:    0.0000
     atom:   29    charge:    3.9793    magn:    0.8261    constr:    0.0000
     atom:   30    charge:    3.9605    magn:    0.8387    constr:    0.0000
     atom:   31    charge:    3.9683    magn:    0.8309    constr:    0.0000
     atom:   32    charge:    3.9581    magn:    0.7067    constr:    0.0000
     atom:   33    charge:    3.9793    magn:    0.8262    constr:    0.0000
     atom:   34    charge:    3.9605    magn:    0.8387    constr:    0.0000
     atom:   35    charge:    3.9683    magn:    0.8309    constr:    0.0000
     atom:   36    charge:    3.9582    magn:    0.7067    constr:    0.0000
     atom:   37    charge:    0.5846    magn:    0.3103    constr:    0.0000
     atom:   38    charge:    0.5846    magn:    0.3104    constr:    0.0000
     atom:   39    charge:    0.5846    magn:    0.3104    constr:    0.0000
     atom:   40    charge:    0.5846    magn:    0.3104    constr:    0.0000
     atom:   41    charge:    0.5846    magn:    0.3104    constr:    0.0000
     atom:   42    charge:    0.5846    magn:    0.3104    constr:    0.0000
     atom:   43    charge:    0.5846    magn:    0.3104    constr:    0.0000
     atom:   44    charge:    0.5846    magn:    0.3104    constr:    0.0000
     atom:   45    charge:    0.5846    magn:    0.3103    constr:    0.0000

     total cpu time spent up to now is      559.3 secs

     total energy              =   -3727.40781635 Ry
     Harris-Foulkes estimate   =   -3726.90999461 Ry
     estimated scf accuracy    <       1.78219715 Ry

     total magnetization       =    40.19 Bohr mag/cell
     absolute magnetization    =    40.65 Bohr mag/cell

     iteration #  7     ecut=    44.10 Ry     beta=0.10
     Davidson diagonalization with overlap
     ethr =  4.50E-04,  avg # of iterations =  7.1

     negative rho (up, down):  3.878E-04 3.274E-04
 
     Adding external electric field

     Computed dipole along edir(3) : 
        Dipole               -0.5065 Ry au,         -1.2873 Debye
        Dipole field         -0.0009 Ry au
 
        Potential amp.        0.0704 Ry
        Total length         38.9923 bohr
 
 
     Adding external electric field

     Computed dipole along edir(3) : 
        Dipole               -0.5065 Ry au,         -1.2873 Debye
        Dipole field         -0.0009 Ry au
 
        Potential amp.        0.0704 Ry
        Total length         38.9923 bohr
 
 
     Magnetic moment per site:
     atom:    1    charge:    3.9615    magn:    0.6559    constr:    0.0000
     atom:    2    charge:    3.9652    magn:    0.6596    constr:    0.0000
     atom:    3    charge:    3.9710    magn:    0.6490    constr:    0.0000
     atom:    4    charge:    3.9494    magn:    0.4380    constr:    0.0000
     atom:    5    charge:    3.9613    magn:    0.6561    constr:    0.0000
     atom:    6    charge:    3.9651    magn:    0.6597    constr:    0.0000
     atom:    7    charge:    3.9710    magn:    0.6490    constr:    0.0000
     atom:    8    charge:    3.9494    magn:    0.4379    constr:    0.0000
     atom:    9    charge:    3.9613    magn:    0.6561    constr:    0.0000
     atom:   10    charge:    3.9652    magn:    0.6596    constr:    0.0000
     atom:   11    charge:    3.9710    magn:    0.6490    constr:    0.0000
     atom:   12    charge:    3.9494    magn:    0.4379    constr:    0.0000
     atom:   13    charge:    3.9614    magn:    0.6560    constr:    0.0000
     atom:   14    charge:    3.9652    magn:    0.6596    constr:    0.0000
     atom:   15    charge:    3.9709    magn:    0.6491    constr:    0.0000
     atom:   16    charge:    3.9494    magn:    0.4380    constr:    0.0000
     atom:   17    charge:    3.9611    magn:    0.6563    constr:    0.0000
     atom:   18    charge:    3.9651    magn:    0.6597    constr:    0.0000
     atom:   19    charge:    3.9709    magn:    0.6491    constr:    0.0000
     atom:   20    charge:    3.9494    magn:    0.4379    constr:    0.0000
     atom:   21    charge:    3.9613    magn:    0.6561    constr:    0.0000
     atom:   22    charge:    3.9653    magn:    0.6596    constr:    0.0000
     atom:   23    charge:    3.9710    magn:    0.6489    constr:    0.0000
     atom:   24    charge:    3.9494    magn:    0.4379    constr:    0.0000
     atom:   25    charge:    3.9616    magn:    0.6558    constr:    0.0000
     atom:   26    charge:    3.9653    magn:    0.6596    constr:    0.0000
     atom:   27    charge:    3.9710    magn:    0.6490    constr:    0.0000
     atom:   28    charge:    3.9494    magn:    0.4379    constr:    0.0000
     atom:   29    charge:    3.9612    magn:    0.6563    constr:    0.0000
     atom:   30    charge:    3.9652    magn:    0.6597    constr:    0.0000
     atom:   31    charge:    3.9709    magn:    0.6490    constr:    0.0000
     atom:   32    charge:    3.9494    magn:    0.4379    constr:    0.0000
     atom:   33    charge:    3.9613    magn:    0.6561    constr:    0.0000
     atom:   34    charge:    3.9652    magn:    0.6596    constr:    0.0000
     atom:   35    charge:    3.9711    magn:    0.6489    constr:    0.0000
     atom:   36    charge:    3.9494    magn:    0.4380    constr:    0.0000
     atom:   37    charge:    0.5893    magn:    0.2433    constr:    0.0000
     atom:   38    charge:    0.5893    magn:    0.2433    constr:    0.0000
     atom:   39    charge:    0.5893    magn:    0.2433    constr:    0.0000
     atom:   40    charge:    0.5893    magn:    0.2433    constr:    0.0000
     atom:   41    charge:    0.5893    magn:    0.2433    constr:    0.0000
     atom:   42    charge:    0.5893    magn:    0.2433    constr:    0.0000
     atom:   43    charge:    0.5893    magn:    0.2433    constr:    0.0000
     atom:   44    charge:    0.5893    magn:    0.2433    constr:    0.0000
     atom:   45    charge:    0.5893    magn:    0.2433    constr:    0.0000

     total cpu time spent up to now is      663.3 secs

     total energy              =   -3728.04082758 Ry
     Harris-Foulkes estimate   =   -3727.46548001 Ry
     estimated scf accuracy    <       2.52137601 Ry

     total magnetization       =    38.43 Bohr mag/cell
     absolute magnetization    =    39.18 Bohr mag/cell

     iteration #  8     ecut=    44.10 Ry     beta=0.10
     Davidson diagonalization with overlap
     ethr =  4.50E-04,  avg # of iterations =  1.5

     negative rho (up, down):  6.198E-04 5.115E-04
 
     Adding external electric field

     Computed dipole along edir(3) : 
        Dipole               -0.3615 Ry au,         -0.9189 Debye
        Dipole field         -0.0006 Ry au
 
        Potential amp.        0.0503 Ry
        Total length         38.9923 bohr
 
 
     Adding external electric field

     Computed dipole along edir(3) : 
        Dipole               -0.3615 Ry au,         -0.9189 Debye
        Dipole field         -0.0006 Ry au
 
        Potential amp.        0.0503 Ry
        Total length         38.9923 bohr
 
 
     Magnetic moment per site:
     atom:    1    charge:    3.9668    magn:    0.4855    constr:    0.0000
     atom:    2    charge:    3.9691    magn:    0.4903    constr:    0.0000
     atom:    3    charge:    3.9732    magn:    0.4720    constr:    0.0000
     atom:    4    charge:    3.9572    magn:    0.1807    constr:    0.0000
     atom:    5    charge:    3.9673    magn:    0.4853    constr:    0.0000
     atom:    6    charge:    3.9694    magn:    0.4901    constr:    0.0000
     atom:    7    charge:    3.9733    magn:    0.4719    constr:    0.0000
     atom:    8    charge:    3.9571    magn:    0.1806    constr:    0.0000
     atom:    9    charge:    3.9673    magn:    0.4852    constr:    0.0000
     atom:   10    charge:    3.9690    magn:    0.4904    constr:    0.0000
     atom:   11    charge:    3.9730    magn:    0.4720    constr:    0.0000
     atom:   12    charge:    3.9571    magn:    0.1807    constr:    0.0000
     atom:   13    charge:    3.9671    magn:    0.4854    constr:    0.0000
     atom:   14    charge:    3.9689    magn:    0.4904    constr:    0.0000
     atom:   15    charge:    3.9734    magn:    0.4718    constr:    0.0000
     atom:   16    charge:    3.9571    magn:    0.1807    constr:    0.0000
     atom:   17    charge:    3.9677    magn:    0.4850    constr:    0.0000
     atom:   18    charge:    3.9696    magn:    0.4899    constr:    0.0000
     atom:   19    charge:    3.9734    magn:    0.4718    constr:    0.0000
     atom:   20    charge:    3.9571    magn:    0.1806    constr:    0.0000
     atom:   21    charge:    3.9673    magn:    0.4853    constr:    0.0000
     atom:   22    charge:    3.9687    magn:    0.4906    constr:    0.0000
     atom:   23    charge:    3.9729    magn:    0.4721    constr:    0.0000
     atom:   24    charge:    3.9570    magn:    0.1807    constr:    0.0000
     atom:   25    charge:    3.9666    magn:    0.4856    constr:    0.0000
     atom:   26    charge:    3.9687    magn:    0.4906    constr:    0.0000
     atom:   27    charge:    3.9732    magn:    0.4720    constr:    0.0000
     atom:   28    charge:    3.9571    magn:    0.1806    constr:    0.0000
     atom:   29    charge:    3.9677    magn:    0.4850    constr:    0.0000
     atom:   30    charge:    3.9693    magn:    0.4901    constr:    0.0000
     atom:   31    charge:    3.9734    magn:    0.4718    constr:    0.0000
     atom:   32    charge:    3.9571    magn:    0.1806    constr:    0.0000
     atom:   33    charge:    3.9673    magn:    0.4852    constr:    0.0000
     atom:   34    charge:    3.9689    magn:    0.4904    constr:    0.0000
     atom:   35    charge:    3.9728    magn:    0.4722    constr:    0.0000
     atom:   36    charge:    3.9570    magn:    0.1807    constr:    0.0000
     atom:   37    charge:    0.5892    magn:    0.1779    constr:    0.0000
     atom:   38    charge:    0.5892    magn:    0.1779    constr:    0.0000
     atom:   39    charge:    0.5892    magn:    0.1779    constr:    0.0000
     atom:   40    charge:    0.5892    magn:    0.1779    constr:    0.0000
     atom:   41    charge:    0.5892    magn:    0.1780    constr:    0.0000
     atom:   42    charge:    0.5892    magn:    0.1780    constr:    0.0000
     atom:   43    charge:    0.5892    magn:    0.1780    constr:    0.0000
     atom:   44    charge:    0.5892    magn:    0.1779    constr:    0.0000
     atom:   45    charge:    0.5892    magn:    0.1779    constr:    0.0000

     total cpu time spent up to now is      738.5 secs

     total energy              =   -3728.41618463 Ry
     Harris-Foulkes estimate   =   -3728.21401118 Ry
     estimated scf accuracy    <       3.84089535 Ry

     total magnetization       =    29.48 Bohr mag/cell
     absolute magnetization    =    31.57 Bohr mag/cell

     iteration #  9     ecut=    44.10 Ry     beta=0.10
     Davidson diagonalization with overlap
     ethr =  4.50E-04,  avg # of iterations =  4.1

     negative rho (up, down):  6.102E-04 4.958E-04
 
     Adding external electric field

     Computed dipole along edir(3) : 
        Dipole               -0.4151 Ry au,         -1.0551 Debye
        Dipole field         -0.0007 Ry au
 
        Potential amp.        0.0577 Ry
        Total length         38.9923 bohr
 
 
     Adding external electric field

     Computed dipole along edir(3) : 
        Dipole               -0.4151 Ry au,         -1.0551 Debye
        Dipole field         -0.0007 Ry au
 
        Potential amp.        0.0577 Ry
        Total length         38.9923 bohr
 
 
     Magnetic moment per site:
     atom:    1    charge:    3.9694    magn:    0.4531    constr:    0.0000
     atom:    2    charge:    3.9701    magn:    0.4590    constr:    0.0000
     atom:    3    charge:    3.9730    magn:    0.4374    constr:    0.0000
     atom:    4    charge:    3.9586    magn:    0.1316    constr:    0.0000
     atom:    5    charge:    3.9691    magn:    0.4534    constr:    0.0000
     atom:    6    charge:    3.9699    magn:    0.4591    constr:    0.0000
     atom:    7    charge:    3.9728    magn:    0.4375    constr:    0.0000
     atom:    8    charge:    3.9586    magn:    0.1315    constr:    0.0000
     atom:    9    charge:    3.9691    magn:    0.4535    constr:    0.0000
     atom:   10    charge:    3.9703    magn:    0.4588    constr:    0.0000
     atom:   11    charge:    3.9731    magn:    0.4373    constr:    0.0000
     atom:   12    charge:    3.9586    magn:    0.1315    constr:    0.0000
     atom:   13    charge:    3.9693    magn:    0.4533    constr:    0.0000
     atom:   14    charge:    3.9703    magn:    0.4589    constr:    0.0000
     atom:   15    charge:    3.9728    magn:    0.4375    constr:    0.0000
     atom:   16    charge:    3.9585    magn:    0.1316    constr:    0.0000
     atom:   17    charge:    3.9687    magn:    0.4538    constr:    0.0000
     atom:   18    charge:    3.9696    magn:    0.4592    constr:    0.0000
     atom:   19    charge:    3.9728    magn:    0.4375    constr:    0.0000
     atom:   20    charge:    3.9586    magn:    0.1315    constr:    0.0000
     atom:   21    charge:    3.9691    magn:    0.4534    constr:    0.0000
     atom:   22    charge:    3.9705    magn:    0.4588    constr:    0.0000
     atom:   23    charge:    3.9732    magn:    0.4373    constr:    0.0000
     atom:   24    charge:    3.9586    magn:    0.1315    constr:    0.0000
     atom:   25    charge:    3.9696    magn:    0.4530    constr:    0.0000
     atom:   26    charge:    3.9705    magn:    0.4587    constr:    0.0000
     atom:   27    charge:    3.9730    magn:    0.4374    constr:    0.0000
     atom:   28    charge:    3.9586    magn:    0.1315    constr:    0.0000
     atom:   29    charge:    3.9688    magn:    0.4537    constr:    0.0000
     atom:   30    charge:    3.9699    magn:    0.4591    constr:    0.0000
     atom:   31    charge:    3.9728    magn:    0.4375    constr:    0.0000
     atom:   32    charge:    3.9586    magn:    0.1315    constr:    0.0000
     atom:   33    charge:    3.9691    magn:    0.4535    constr:    0.0000
     atom:   34    charge:    3.9703    magn:    0.4588    constr:    0.0000
     atom:   35    charge:    3.9732    magn:    0.4373    constr:    0.0000
     atom:   36    charge:    3.9586    magn:    0.1316    constr:    0.0000
     atom:   37    charge:    0.5877    magn:    0.1627    constr:    0.0000
     atom:   38    charge:    0.5877    magn:    0.1627    constr:    0.0000
     atom:   39    charge:    0.5877    magn:    0.1627    constr:    0.0000
     atom:   40    charge:    0.5877    magn:    0.1627    constr:    0.0000
     atom:   41    charge:    0.5877    magn:    0.1627    constr:    0.0000
     atom:   42    charge:    0.5877    magn:    0.1627    constr:    0.0000
     atom:   43    charge:    0.5877    magn:    0.1627    constr:    0.0000
     atom:   44    charge:    0.5877    magn:    0.1627    constr:    0.0000
     atom:   45    charge:    0.5877    magn:    0.1627    constr:    0.0000

     total cpu time spent up to now is      827.0 secs

     total energy              =   -3728.56497277 Ry
     Harris-Foulkes estimate   =   -3728.54722749 Ry
     estimated scf accuracy    <       0.47594355 Ry

     total magnetization       =    23.75 Bohr mag/cell
     absolute magnetization    =    27.27 Bohr mag/cell

     iteration # 10     ecut=    44.10 Ry     beta=0.10
     Davidson diagonalization with overlap
     ethr =  1.20E-04,  avg # of iterations =  2.8

     negative rho (up, down):  6.311E-04 5.037E-04
 
     Adding external electric field

     Computed dipole along edir(3) : 
        Dipole               -0.6058 Ry au,         -1.5398 Debye
        Dipole field         -0.0011 Ry au
 
        Potential amp.        0.0843 Ry
        Total length         38.9923 bohr
 
 
     Adding external electric field

     Computed dipole along edir(3) : 
        Dipole               -0.6058 Ry au,         -1.5398 Debye
        Dipole field         -0.0011 Ry au
 
        Potential amp.        0.0843 Ry
        Total length         38.9923 bohr
 
 
     Magnetic moment per site:
     atom:    1    charge:    3.9717    magn:    0.3908    constr:    0.0000
     atom:    2    charge:    3.9729    magn:    0.3962    constr:    0.0000
     atom:    3    charge:    3.9718    magn:    0.3662    constr:    0.0000
     atom:    4    charge:    3.9620    magn:    0.0318    constr:    0.0000
     atom:    5    charge:    3.9727    magn:    0.3901    constr:    0.0000
     atom:    6    charge:    3.9733    magn:    0.3959    constr:    0.0000
     atom:    7    charge:    3.9719    magn:    0.3661    constr:    0.0000
     atom:    8    charge:    3.9619    magn:    0.0318    constr:    0.0000
     atom:    9    charge:    3.9727    magn:    0.3902    constr:    0.0000
     atom:   10    charge:    3.9726    magn:    0.3964    constr:    0.0000
     atom:   11    charge:    3.9716    magn:    0.3663    constr:    0.0000
     atom:   12    charge:    3.9619    magn:    0.0318    constr:    0.0000
     atom:   13    charge:    3.9722    magn:    0.3905    constr:    0.0000
     atom:   14    charge:    3.9726    magn:    0.3965    constr:    0.0000
     atom:   15    charge:    3.9720    magn:    0.3660    constr:    0.0000
     atom:   16    charge:    3.9620    magn:    0.0318    constr:    0.0000
     atom:   17    charge:    3.9738    magn:    0.3895    constr:    0.0000
     atom:   18    charge:    3.9737    magn:    0.3956    constr:    0.0000
     atom:   19    charge:    3.9720    magn:    0.3660    constr:    0.0000
     atom:   20    charge:    3.9619    magn:    0.0318    constr:    0.0000
     atom:   21    charge:    3.9726    magn:    0.3903    constr:    0.0000
     atom:   22    charge:    3.9723    magn:    0.3967    constr:    0.0000
     atom:   23    charge:    3.9714    magn:    0.3664    constr:    0.0000
     atom:   24    charge:    3.9618    magn:    0.0318    constr:    0.0000
     atom:   25    charge:    3.9712    magn:    0.3911    constr:    0.0000
     atom:   26    charge:    3.9721    magn:    0.3968    constr:    0.0000
     atom:   27    charge:    3.9716    magn:    0.3663    constr:    0.0000
     atom:   28    charge:    3.9619    magn:    0.0318    constr:    0.0000
     atom:   29    charge:    3.9735    magn:    0.3897    constr:    0.0000
     atom:   30    charge:    3.9733    magn:    0.3960    constr:    0.0000
     atom:   31    charge:    3.9720    magn:    0.3660    constr:    0.0000
     atom:   32    charge:    3.9619    magn:    0.0318    constr:    0.0000
     atom:   33    charge:    3.9727    magn:    0.3901    constr:    0.0000
     atom:   34    charge:    3.9725    magn:    0.3965    constr:    0.0000
     atom:   35    charge:    3.9713    magn:    0.3665    constr:    0.0000
     atom:   36    charge:    3.9619    magn:    0.0318    constr:    0.0000
     atom:   37    charge:    0.5829    magn:    0.1283    constr:    0.0000
     atom:   38    charge:    0.5829    magn:    0.1283    constr:    0.0000
     atom:   39    charge:    0.5829    magn:    0.1283    constr:    0.0000
     atom:   40    charge:    0.5829    magn:    0.1283    constr:    0.0000
     atom:   41    charge:    0.5829    magn:    0.1283    constr:    0.0000
     atom:   42    charge:    0.5830    magn:    0.1283    constr:    0.0000
     atom:   43    charge:    0.5829    magn:    0.1283    constr:    0.0000
     atom:   44    charge:    0.5829    magn:    0.1283    constr:    0.0000
     atom:   45    charge:    0.5829    magn:    0.1283    constr:    0.0000

     total cpu time spent up to now is      908.1 secs

     total energy              =   -3728.55561381 Ry
     Harris-Foulkes estimate   =   -3728.57019009 Ry
     estimated scf accuracy    <       0.97290677 Ry

     total magnetization       =    22.99 Bohr mag/cell
     absolute magnetization    =    26.64 Bohr mag/cell

     iteration # 11     ecut=    44.10 Ry     beta=0.10
     Davidson diagonalization with overlap
     ethr =  1.20E-04,  avg # of iterations =  2.6

     negative rho (up, down):  4.744E-04 3.868E-04
 
     Adding external electric field

     Computed dipole along edir(3) : 
        Dipole               -0.8075 Ry au,         -2.0523 Debye
        Dipole field         -0.0014 Ry au
 
        Potential amp.        0.1123 Ry
        Total length         38.9923 bohr
 
 
     Adding external electric field

     Computed dipole along edir(3) : 
        Dipole               -0.8075 Ry au,         -2.0523 Debye
        Dipole field         -0.0014 Ry au
 
        Potential amp.        0.1123 Ry
        Total length         38.9923 bohr
 
 
     Magnetic moment per site:
     atom:    1    charge:    3.9695    magn:    0.4307    constr:    0.0000
     atom:    2    charge:    3.9728    magn:    0.4353    constr:    0.0000
     atom:    3    charge:    3.9693    magn:    0.4004    constr:    0.0000
     atom:    4    charge:    3.9617    magn:    0.0875    constr:    0.0000
     atom:    5    charge:    3.9685    magn:    0.4313    constr:    0.0000
     atom:    6    charge:    3.9731    magn:    0.4351    constr:    0.0000
     atom:    7    charge:    3.9696    magn:    0.4000    constr:    0.0000
     atom:    8    charge:    3.9615    magn:    0.0876    constr:    0.0000
     atom:    9    charge:    3.9686    magn:    0.4312    constr:    0.0000
     atom:   10    charge:    3.9726    magn:    0.4355    constr:    0.0000
     atom:   11    charge:    3.9690    magn:    0.4006    constr:    0.0000
     atom:   12    charge:    3.9615    magn:    0.0876    constr:    0.0000
     atom:   13    charge:    3.9690    magn:    0.4310    constr:    0.0000
     atom:   14    charge:    3.9725    magn:    0.4356    constr:    0.0000
     atom:   15    charge:    3.9699    magn:    0.3999    constr:    0.0000
     atom:   16    charge:    3.9616    magn:    0.0875    constr:    0.0000
     atom:   17    charge:    3.9675    magn:    0.4319    constr:    0.0000
     atom:   18    charge:    3.9733    magn:    0.4348    constr:    0.0000
     atom:   19    charge:    3.9698    magn:    0.3999    constr:    0.0000
     atom:   20    charge:    3.9616    magn:    0.0875    constr:    0.0000
     atom:   21    charge:    3.9690    magn:    0.4310    constr:    0.0000
     atom:   22    charge:    3.9722    magn:    0.4359    constr:    0.0000
     atom:   23    charge:    3.9687    magn:    0.4007    constr:    0.0000
     atom:   24    charge:    3.9614    magn:    0.0877    constr:    0.0000
     atom:   25    charge:    3.9697    magn:    0.4307    constr:    0.0000
     atom:   26    charge:    3.9723    magn:    0.4358    constr:    0.0000
     atom:   27    charge:    3.9695    magn:    0.4003    constr:    0.0000
     atom:   28    charge:    3.9616    magn:    0.0875    constr:    0.0000
     atom:   29    charge:    3.9680    magn:    0.4317    constr:    0.0000
     atom:   30    charge:    3.9729    magn:    0.4352    constr:    0.0000
     atom:   31    charge:    3.9698    magn:    0.3998    constr:    0.0000
     atom:   32    charge:    3.9616    magn:    0.0875    constr:    0.0000
     atom:   33    charge:    3.9686    magn:    0.4312    constr:    0.0000
     atom:   34    charge:    3.9725    magn:    0.4356    constr:    0.0000
     atom:   35    charge:    3.9685    magn:    0.4009    constr:    0.0000
     atom:   36    charge:    3.9613    magn:    0.0877    constr:    0.0000
     atom:   37    charge:    0.5786    magn:    0.1328    constr:    0.0000
     atom:   38    charge:    0.5786    magn:    0.1329    constr:    0.0000
     atom:   39    charge:    0.5786    magn:    0.1329    constr:    0.0000
     atom:   40    charge:    0.5785    magn:    0.1329    constr:    0.0000
     atom:   41    charge:    0.5786    magn:    0.1329    constr:    0.0000
     atom:   42    charge:    0.5786    magn:    0.1329    constr:    0.0000
     atom:   43    charge:    0.5786    magn:    0.1329    constr:    0.0000
     atom:   44    charge:    0.5786    magn:    0.1329    constr:    0.0000
     atom:   45    charge:    0.5786    magn:    0.1329    constr:    0.0000

     total cpu time spent up to now is      988.1 secs

     total energy              =   -3728.51563712 Ry
     Harris-Foulkes estimate   =   -3728.57217151 Ry
     estimated scf accuracy    <       1.95879624 Ry

     total magnetization       =    21.33 Bohr mag/cell
     absolute magnetization    =    25.17 Bohr mag/cell

     iteration # 12     ecut=    44.10 Ry     beta=0.10
     Davidson diagonalization with overlap
     ethr =  1.20E-04,  avg # of iterations =  5.2

     negative rho (up, down):  4.370E-04 3.515E-04
 
     Adding external electric field

     Computed dipole along edir(3) : 
        Dipole               -0.7923 Ry au,         -2.0139 Debye
        Dipole field         -0.0014 Ry au
 
        Potential amp.        0.1102 Ry
        Total length         38.9923 bohr
 
 
     Adding external electric field

     Computed dipole along edir(3) : 
        Dipole               -0.7923 Ry au,         -2.0139 Debye
        Dipole field         -0.0014 Ry au
 
        Potential amp.        0.1102 Ry
        Total length         38.9923 bohr
 
 
     Magnetic moment per site:
     atom:    1    charge:    3.9691    magn:    0.4305    constr:    0.0000
     atom:    2    charge:    3.9719    magn:    0.4347    constr:    0.0000
     atom:    3    charge:    3.9695    magn:    0.3977    constr:    0.0000
     atom:    4    charge:    3.9618    magn:    0.0865    constr:    0.0000
     atom:    5    charge:    3.9693    magn:    0.4303    constr:    0.0000
     atom:    6    charge:    3.9719    magn:    0.4346    constr:    0.0000
     atom:    7    charge:    3.9693    magn:    0.3977    constr:    0.0000
     atom:    8    charge:    3.9618    magn:    0.0865    constr:    0.0000
     atom:    9    charge:    3.9692    magn:    0.4304    constr:    0.0000
     atom:   10    charge:    3.9720    magn:    0.4347    constr:    0.0000
     atom:   11    charge:    3.9696    magn:    0.3977    constr:    0.0000
     atom:   12    charge:    3.9618    magn:    0.0865    constr:    0.0000
     atom:   13    charge:    3.9692    magn:    0.4304    constr:    0.0000
     atom:   14    charge:    3.9720    magn:    0.4347    constr:    0.0000
     atom:   15    charge:    3.9692    magn:    0.3976    constr:    0.0000
     atom:   16    charge:    3.9618    magn:    0.0865    constr:    0.0000
     atom:   17    charge:    3.9694    magn:    0.4303    constr:    0.0000
     atom:   18    charge:    3.9718    magn:    0.4345    constr:    0.0000
     atom:   19    charge:    3.9692    magn:    0.3976    constr:    0.0000
     atom:   20    charge:    3.9618    magn:    0.0865    constr:    0.0000
     atom:   21    charge:    3.9692    magn:    0.4304    constr:    0.0000
     atom:   22    charge:    3.9721    magn:    0.4347    constr:    0.0000
     atom:   23    charge:    3.9697    magn:    0.3977    constr:    0.0000
     atom:   24    charge:    3.9619    magn:    0.0866    constr:    0.0000
     atom:   25    charge:    3.9691    magn:    0.4305    constr:    0.0000
     atom:   26    charge:    3.9721    magn:    0.4348    constr:    0.0000
     atom:   27    charge:    3.9695    magn:    0.3977    constr:    0.0000
     atom:   28    charge:    3.9618    magn:    0.0865    constr:    0.0000
     atom:   29    charge:    3.9694    magn:    0.4303    constr:    0.0000
     atom:   30    charge:    3.9719    magn:    0.4346    constr:    0.0000
     atom:   31    charge:    3.9692    magn:    0.3976    constr:    0.0000
     atom:   32    charge:    3.9618    magn:    0.0865    constr:    0.0000
     atom:   33    charge:    3.9693    magn:    0.4304    constr:    0.0000
     atom:   34    charge:    3.9720    magn:    0.4347    constr:    0.0000
     atom:   35    charge:    3.9697    magn:    0.3977    constr:    0.0000
     atom:   36    charge:    3.9618    magn:    0.0866    constr:    0.0000
     atom:   37    charge:    0.5780    magn:    0.1310    constr:    0.0000
     atom:   38    charge:    0.5780    magn:    0.1311    constr:    0.0000
     atom:   39    charge:    0.5780    magn:    0.1310    constr:    0.0000
     atom:   40    charge:    0.5780    magn:    0.1310    constr:    0.0000
     atom:   41    charge:    0.5780    magn:    0.1311    constr:    0.0000
     atom:   42    charge:    0.5780    magn:    0.1311    constr:    0.0000
     atom:   43    charge:    0.5780    magn:    0.1311    constr:    0.0000
     atom:   44    charge:    0.5780    magn:    0.1311    constr:    0.0000
     atom:   45    charge:    0.5780    magn:    0.1310    constr:    0.0000

     total cpu time spent up to now is     1081.6 secs

     total energy              =   -3728.56040018 Ry
     Harris-Foulkes estimate   =   -3728.56422279 Ry
     estimated scf accuracy    <       0.68082116 Ry

     total magnetization       =    21.75 Bohr mag/cell
     absolute magnetization    =    25.16 Bohr mag/cell

     iteration # 13     ecut=    44.10 Ry     beta=0.10
     Davidson diagonalization with overlap
     ethr =  1.20E-04,  avg # of iterations =  1.1

     negative rho (up, down):  4.201E-04 3.427E-04
 
     Adding external electric field

     Computed dipole along edir(3) : 
        Dipole               -0.7401 Ry au,         -1.8811 Debye
        Dipole field         -0.0013 Ry au
 
        Potential amp.        0.1029 Ry
        Total length         38.9923 bohr
 
 
     Adding external electric field

     Computed dipole along edir(3) : 
        Dipole               -0.7401 Ry au,         -1.8811 Debye
        Dipole field         -0.0013 Ry au
 
        Potential amp.        0.1029 Ry
        Total length         38.9923 bohr
 
 
     Magnetic moment per site:
     atom:    1    charge:    3.9717    magn:    0.4101    constr:    0.0000
     atom:    2    charge:    3.9698    magn:    0.4149    constr:    0.0000
     atom:    3    charge:    3.9699    magn:    0.3702    constr:    0.0000
     atom:    4    charge:    3.9625    magn:    0.0570    constr:    0.0000
     atom:    5    charge:    3.9719    magn:    0.4100    constr:    0.0000
     atom:    6    charge:    3.9696    magn:    0.4149    constr:    0.0000
     atom:    7    charge:    3.9700    magn:    0.3700    constr:    0.0000
     atom:    8    charge:    3.9625    magn:    0.0570    constr:    0.0000
     atom:    9    charge:    3.9719    magn:    0.4101    constr:    0.0000
     atom:   10    charge:    3.9697    magn:    0.4151    constr:    0.0000
     atom:   11    charge:    3.9698    magn:    0.3703    constr:    0.0000
     atom:   12    charge:    3.9625    magn:    0.0570    constr:    0.0000
     atom:   13    charge:    3.9718    magn:    0.4101    constr:    0.0000
     atom:   14    charge:    3.9699    magn:    0.4150    constr:    0.0000
     atom:   15    charge:    3.9699    magn:    0.3700    constr:    0.0000
     atom:   16    charge:    3.9626    magn:    0.0570    constr:    0.0000
     atom:   17    charge:    3.9722    magn:    0.4099    constr:    0.0000
     atom:   18    charge:    3.9696    magn:    0.4148    constr:    0.0000
     atom:   19    charge:    3.9699    magn:    0.3699    constr:    0.0000
     atom:   20    charge:    3.9625    magn:    0.0570    constr:    0.0000
     atom:   21    charge:    3.9717    magn:    0.4101    constr:    0.0000
     atom:   22    charge:    3.9698    magn:    0.4152    constr:    0.0000
     atom:   23    charge:    3.9698    magn:    0.3703    constr:    0.0000
     atom:   24    charge:    3.9624    magn:    0.0571    constr:    0.0000
     atom:   25    charge:    3.9717    magn:    0.4102    constr:    0.0000
     atom:   26    charge:    3.9700    magn:    0.4151    constr:    0.0000
     atom:   27    charge:    3.9697    magn:    0.3703    constr:    0.0000
     atom:   28    charge:    3.9625    magn:    0.0570    constr:    0.0000
     atom:   29    charge:    3.9719    magn:    0.4101    constr:    0.0000
     atom:   30    charge:    3.9698    magn:    0.4149    constr:    0.0000
     atom:   31    charge:    3.9701    magn:    0.3698    constr:    0.0000
     atom:   32    charge:    3.9626    magn:    0.0570    constr:    0.0000
     atom:   33    charge:    3.9717    magn:    0.4101    constr:    0.0000
     atom:   34    charge:    3.9697    magn:    0.4151    constr:    0.0000
     atom:   35    charge:    3.9696    magn:    0.3705    constr:    0.0000
     atom:   36    charge:    3.9626    magn:    0.0570    constr:    0.0000
     atom:   37    charge:    0.5763    magn:    0.1179    constr:    0.0000
     atom:   38    charge:    0.5763    magn:    0.1179    constr:    0.0000
     atom:   39    charge:    0.5763    magn:    0.1179    constr:    0.0000
     atom:   40    charge:    0.5763    magn:    0.1179    constr:    0.0000
     atom:   41    charge:    0.5763    magn:    0.1179    constr:    0.0000
     atom:   42    charge:    0.5763    magn:    0.1179    constr:    0.0000
     atom:   43    charge:    0.5763    magn:    0.1179    constr:    0.0000
     atom:   44    charge:    0.5763    magn:    0.1179    constr:    0.0000
     atom:   45    charge:    0.5763    magn:    0.1179    constr:    0.0000

     total cpu time spent up to now is     1154.8 secs

     total energy              =   -3728.55676761 Ry
     Harris-Foulkes estimate   =   -3728.56245680 Ry
     estimated scf accuracy    <       0.47561442 Ry

     total magnetization       =    21.77 Bohr mag/cell
     absolute magnetization    =    25.14 Bohr mag/cell

     iteration # 14     ecut=    44.10 Ry     beta=0.10
     Davidson diagonalization with overlap
     ethr =  1.20E-04,  avg # of iterations =  1.0

     negative rho (up, down):  3.867E-04 3.188E-04
 
     Adding external electric field

     Computed dipole along edir(3) : 
        Dipole               -0.8109 Ry au,         -2.0612 Debye
        Dipole field         -0.0014 Ry au
 
        Potential amp.        0.1128 Ry
        Total length         38.9923 bohr
 
 
     Adding external electric field

     Computed dipole along edir(3) : 
        Dipole               -0.8109 Ry au,         -2.0612 Debye
        Dipole field         -0.0014 Ry au
 
        Potential amp.        0.1128 Ry
        Total length         38.9923 bohr
 
 
     Magnetic moment per site:
     atom:    1    charge:    3.9709    magn:    0.4058    constr:    0.0000
     atom:    2    charge:    3.9693    magn:    0.4107    constr:    0.0000
     atom:    3    charge:    3.9690    magn:    0.3594    constr:    0.0000
     atom:    4    charge:    3.9610    magn:    0.0490    constr:    0.0000
     atom:    5    charge:    3.9708    magn:    0.4058    constr:    0.0000
     atom:    6    charge:    3.9698    magn:    0.4103    constr:    0.0000
     atom:    7    charge:    3.9687    magn:    0.3593    constr:    0.0000
     atom:    8    charge:    3.9610    magn:    0.0490    constr:    0.0000
     atom:    9    charge:    3.9709    magn:    0.4058    constr:    0.0000
     atom:   10    charge:    3.9696    magn:    0.4106    constr:    0.0000
     atom:   11    charge:    3.9690    magn:    0.3594    constr:    0.0000
     atom:   12    charge:    3.9611    magn:    0.0490    constr:    0.0000
     atom:   13    charge:    3.9709    magn:    0.4058    constr:    0.0000
     atom:   14    charge:    3.9693    magn:    0.4108    constr:    0.0000
     atom:   15    charge:    3.9690    magn:    0.3591    constr:    0.0000
     atom:   16    charge:    3.9610    magn:    0.0490    constr:    0.0000
     atom:   17    charge:    3.9704    magn:    0.4061    constr:    0.0000
     atom:   18    charge:    3.9700    magn:    0.4100    constr:    0.0000
     atom:   19    charge:    3.9690    magn:    0.3591    constr:    0.0000
     atom:   20    charge:    3.9611    magn:    0.0490    constr:    0.0000
     atom:   21    charge:    3.9713    magn:    0.4055    constr:    0.0000
     atom:   22    charge:    3.9695    magn:    0.4108    constr:    0.0000
     atom:   23    charge:    3.9692    magn:    0.3594    constr:    0.0000
     atom:   24    charge:    3.9612    magn:    0.0490    constr:    0.0000
     atom:   25    charge:    3.9709    magn:    0.4058    constr:    0.0000
     atom:   26    charge:    3.9690    magn:    0.4112    constr:    0.0000
     atom:   27    charge:    3.9694    magn:    0.3592    constr:    0.0000
     atom:   28    charge:    3.9611    magn:    0.0490    constr:    0.0000
     atom:   29    charge:    3.9710    magn:    0.4057    constr:    0.0000
     atom:   30    charge:    3.9696    magn:    0.4104    constr:    0.0000
     atom:   31    charge:    3.9687    magn:    0.3592    constr:    0.0000
     atom:   32    charge:    3.9610    magn:    0.0490    constr:    0.0000
     atom:   33    charge:    3.9713    magn:    0.4055    constr:    0.0000
     atom:   34    charge:    3.9696    magn:    0.4107    constr:    0.0000
     atom:   35    charge:    3.9694    magn:    0.3594    constr:    0.0000
     atom:   36    charge:    3.9610    magn:    0.0490    constr:    0.0000
     atom:   37    charge:    0.5752    magn:    0.1102    constr:    0.0000
     atom:   38    charge:    0.5752    magn:    0.1102    constr:    0.0000
     atom:   39    charge:    0.5752    magn:    0.1102    constr:    0.0000
     atom:   40    charge:    0.5752    magn:    0.1102    constr:    0.0000
     atom:   41    charge:    0.5752    magn:    0.1102    constr:    0.0000
     atom:   42    charge:    0.5752    magn:    0.1102    constr:    0.0000
     atom:   43    charge:    0.5752    magn:    0.1102    constr:    0.0000
     atom:   44    charge:    0.5752    magn:    0.1102    constr:    0.0000
     atom:   45    charge:    0.5752    magn:    0.1102    constr:    0.0000

     total cpu time spent up to now is     1227.4 secs

     total energy              =   -3728.56680338 Ry
     Harris-Foulkes estimate   =   -3728.56800870 Ry
     estimated scf accuracy    <       0.11125272 Ry

     total magnetization       =    21.41 Bohr mag/cell
     absolute magnetization    =    24.74 Bohr mag/cell

     iteration # 15     ecut=    44.10 Ry     beta=0.10
     Davidson diagonalization with overlap
     ethr =  2.81E-05,  avg # of iterations =  2.1

     negative rho (up, down):  3.589E-04 2.978E-04
 
     Adding external electric field

     Computed dipole along edir(3) : 
        Dipole               -0.8282 Ry au,         -2.1051 Debye
        Dipole field         -0.0015 Ry au
 
        Potential amp.        0.1152 Ry
        Total length         38.9923 bohr
 
 
     Adding external electric field

     Computed dipole along edir(3) : 
        Dipole               -0.8282 Ry au,         -2.1051 Debye
        Dipole field         -0.0015 Ry au
 
        Potential amp.        0.1152 Ry
        Total length         38.9923 bohr
 
 
     Magnetic moment per site:
     atom:    1    charge:    3.9712    magn:    0.4034    constr:    0.0000
     atom:    2    charge:    3.9691    magn:    0.4084    constr:    0.0000
     atom:    3    charge:    3.9690    magn:    0.3523    constr:    0.0000
     atom:    4    charge:    3.9606    magn:    0.0457    constr:    0.0000
     atom:    5    charge:    3.9713    magn:    0.4034    constr:    0.0000
     atom:    6    charge:    3.9689    magn:    0.4083    constr:    0.0000
     atom:    7    charge:    3.9689    magn:    0.3521    constr:    0.0000
     atom:    8    charge:    3.9605    magn:    0.0458    constr:    0.0000
     atom:    9    charge:    3.9711    magn:    0.4036    constr:    0.0000
     atom:   10    charge:    3.9688    magn:    0.4087    constr:    0.0000
     atom:   11    charge:    3.9690    magn:    0.3523    constr:    0.0000
     atom:   12    charge:    3.9606    magn:    0.0458    constr:    0.0000
     atom:   13    charge:    3.9712    magn:    0.4035    constr:    0.0000
     atom:   14    charge:    3.9689    magn:    0.4086    constr:    0.0000
     atom:   15    charge:    3.9689    magn:    0.3520    constr:    0.0000
     atom:   16    charge:    3.9605    magn:    0.0457    constr:    0.0000
     atom:   17    charge:    3.9714    magn:    0.4034    constr:    0.0000
     atom:   18    charge:    3.9688    magn:    0.4083    constr:    0.0000
     atom:   19    charge:    3.9688    magn:    0.3521    constr:    0.0000
     atom:   20    charge:    3.9606    magn:    0.0457    constr:    0.0000
     atom:   21    charge:    3.9709    magn:    0.4037    constr:    0.0000
     atom:   22    charge:    3.9687    magn:    0.4089    constr:    0.0000
     atom:   23    charge:    3.9689    magn:    0.3525    constr:    0.0000
     atom:   24    charge:    3.9606    magn:    0.0458    constr:    0.0000
     atom:   25    charge:    3.9711    magn:    0.4036    constr:    0.0000
     atom:   26    charge:    3.9690    magn:    0.4087    constr:    0.0000
     atom:   27    charge:    3.9689    magn:    0.3524    constr:    0.0000
     atom:   28    charge:    3.9606    magn:    0.0457    constr:    0.0000
     atom:   29    charge:    3.9712    magn:    0.4035    constr:    0.0000
     atom:   30    charge:    3.9689    magn:    0.4084    constr:    0.0000
     atom:   31    charge:    3.9689    magn:    0.3520    constr:    0.0000
     atom:   32    charge:    3.9606    magn:    0.0457    constr:    0.0000
     atom:   33    charge:    3.9709    magn:    0.4037    constr:    0.0000
     atom:   34    charge:    3.9688    magn:    0.4087    constr:    0.0000
     atom:   35    charge:    3.9689    magn:    0.3526    constr:    0.0000
     atom:   36    charge:    3.9605    magn:    0.0458    constr:    0.0000
     atom:   37    charge:    0.5744    magn:    0.1053    constr:    0.0000
     atom:   38    charge:    0.5744    magn:    0.1053    constr:    0.0000
     atom:   39    charge:    0.5744    magn:    0.1053    constr:    0.0000
     atom:   40    charge:    0.5744    magn:    0.1053    constr:    0.0000
     atom:   41    charge:    0.5744    magn:    0.1053    constr:    0.0000
     atom:   42    charge:    0.5744    magn:    0.1053    constr:    0.0000
     atom:   43    charge:    0.5744    magn:    0.1054    constr:    0.0000
     atom:   44    charge:    0.5744    magn:    0.1053    constr:    0.0000
     atom:   45    charge:    0.5744    magn:    0.1053    constr:    0.0000

     total cpu time spent up to now is     1305.3 secs

     total energy              =   -3728.57198979 Ry
     Harris-Foulkes estimate   =   -3728.56996483 Ry
     estimated scf accuracy    <       0.01020151 Ry

     total magnetization       =    21.15 Bohr mag/cell
     absolute magnetization    =    24.37 Bohr mag/cell

     iteration # 16     ecut=    44.10 Ry     beta=0.10
     Davidson diagonalization with overlap
[...]
     0.4714   0.4735   0.6087   0.6087   0.6155   0.6155   0.6155   0.6155
     0.6554   0.6554   0.7563   0.7563   0.8538   0.8538   0.8538   0.8539
     0.8559   0.8560   0.9851   1.0229   1.0229   1.0271   1.0271   1.0272
     1.0272   1.0905   1.0905   1.1158   1.1162   1.1198   1.1842   1.1842
     1.2507   1.2507   1.2631   1.2638   1.2841   1.2841   1.2855   1.2856
     1.2856   1.2856   1.4204   1.4205   1.4491   1.4491   1.4491   1.4491
     1.4492   1.4492   1.6165   1.6165   1.6176   1.6176   1.6176   1.6176
     1.6528   1.6529   1.9228   1.9228   2.0648   2.0648   2.0650   2.0650
     2.0650   2.0650   2.0786   2.0786   2.0916   2.0916   2.1247   2.1252
     2.2337   2.2337   2.2337   2.2337   2.2380   2.2380   2.4077   2.4084
     2.4187   2.4187   2.4187   2.4188   2.4188   2.4189   2.4788   2.4788
     2.4789   2.4789   2.4797   2.4797   2.4906   2.5289   2.5289   2.5291
     2.5291   2.5291   2.5291   2.6318   2.6318   2.6537   2.6537   2.6538
     2.6538   2.6538   2.6538   2.7031   2.7031   2.7336   2.7336   2.7977
     2.7978   2.8471   2.8471   2.8471   2.8471   2.8473   2.8473   3.0475
     3.0784   3.0784   3.0785   3.0785   3.0846   3.0846   3.3469   3.3469
     3.7855   3.7855   3.7861   3.7862   3.7862   3.7863   5.2729   5.2730
     5.5729   5.5729   5.5730   5.5730   5.5763   5.5764   6.7226   6.7227
     6.7227   6.7227   6.7263   6.7263   7.2939   7.5158   7.5158   7.8549
     7.8549   7.9271   7.9272   7.9272   7.9272   7.9353   7.9353   8.0081
     8.0120   8.1675   8.1675   8.4835   8.6333   8.6333   9.0115   9.4956
     9.4956  10.2163  10.2163  10.4260  10.4263  10.4264  10.4265  10.4289
    10.4290  10.4862  11.0382  11.3044  11.3044  11.4426  11.4428  11.4430
    11.4431  11.4456  11.4457  11.5123  11.5123  11.7315  11.7389  11.7418
    11.7449  11.7467  11.7469  11.9827  11.9828  12.2063  12.2098  12.2103
    12.2120  12.2122  12.2124  12.9040  12.9043  12.9116  12.9121  12.9122
    12.9123  13.3063

          k = 0.0000 0.0510 0.0000 ( 34862 PWs)   bands (ev):

   -10.7893  -9.9448  -9.1810  -9.1809  -7.9676  -7.9676  -7.6122  -7.2177
    -7.2176  -5.2444  -4.1307  -3.8179  -3.7542  -3.3114  -3.3114  -3.2066
    -3.2066  -3.1813  -3.1812  -2.9467  -2.7620  -2.5764  -2.5763  -2.2617
    -2.0843  -2.0843  -1.7261  -1.7261  -1.7247  -1.5647  -1.5647  -1.5376
    -1.4644  -1.3961  -1.3961  -1.3196  -1.2072  -1.2072  -1.1653  -1.0910
    -1.0119  -1.0118  -0.9990  -0.9990  -0.9095  -0.8798  -0.8798  -0.8631
    -0.8631  -0.8360  -0.8360  -0.7382  -0.6693  -0.6396  -0.6396  -0.6303
    -0.5113  -0.4879  -0.4126  -0.4126  -0.3733  -0.3733  -0.3529  -0.3202
    -0.3202  -0.2714  -0.2714  -0.2151  -0.2151  -0.1843  -0.1313  -0.0992
    -0.0992  -0.0569  -0.0569   0.0297   0.0297   0.0999   0.0999   0.2494
     0.2581   0.2581   0.3359   0.3359   0.3362   0.3362   0.4026   0.4192
     0.4192   0.4318   0.4653   0.4708   0.5004   0.6009   0.6009   0.6187
     0.6765   0.6765   0.6783   0.6783   0.7909   0.7976   0.8435   0.8435
     0.9124   0.9124   0.9467   0.9703   0.9703   0.9728   0.9728   1.0274
     1.0451   1.0451   1.0807   1.0828   1.1059   1.1388   1.1388   1.2405
     1.2405   1.2469   1.2571   1.2598   1.2598   1.2817   1.3239   1.3239
     1.3634   1.3830   1.3868   1.3929   1.4265   1.4265   1.5343   1.5351
     1.5351   1.5793   1.5917   1.5917   1.6569   1.6836   1.6836   1.7171
     1.7207   1.7207   1.7354   1.7797   1.7797   1.8876   1.8876   1.8973
     1.9642   1.9643   1.9822   2.0074   2.0074   2.0692   2.0765   2.0945
     2.1513   2.1784   2.1837   2.1837   2.1947   2.2100   2.2100   2.2466
     2.2466   2.2647   2.2647   2.4011   2.4074   2.4521   2.4521   2.4651
     2.4651   2.5291   2.5291   2.5844   2.5844   2.6058   2.6058   2.6075
     2.6732   2.6796   2.6796   2.7284   2.7526   2.7526   2.7532   2.7532
     2.8042   2.8168   2.8390   2.8398   2.8398   2.8980   2.8980   2.9100
     2.9100   2.9273   2.9389   3.0108   3.0639   3.1803   3.2333   3.2333
     3.2491   3.2491   3.5611   3.5611   3.6431   3.7005   3.7006   3.9249
     4.0918   4.1560   4.1560   4.2651   4.3894   4.3894   4.8505   4.8505
     5.2720   5.2720   5.3757   5.3757   5.4157   5.7458   5.7458   5.9537
     6.1720   6.2504   6.2505   6.3185   6.3745   6.3745   6.4387   6.4387
     7.2782   7.2782   7.3044   7.3100   7.6700   7.7866   7.7866   7.8076
     8.7757   8.7904   8.8650   9.1710   9.1710   9.2682   9.2682   9.3200
     9.5402   9.8537   9.8540   9.9954  10.0514  10.0514  10.2059  10.2059
    10.2499  10.3569  10.7771  11.0855  11.0885  11.1821  11.1821  11.1821
    11.1821  11.2196  11.2211  11.2485  11.4077  11.5749  11.5749  11.6858
    12.0670  12.0671  12.2365  12.2365  12.5113  12.5956  12.5959  12.7238
    12.7244  12.9502  12.9502  13.1647  13.4397  13.4432  13.5406  13.5415
    13.6449  13.6658

          k = 0.0442 0.0255 0.0000 ( 34862 PWs)   bands (ev):

   -10.7893  -9.9450  -9.1805  -9.1803  -7.9683  -7.9667  -7.6141  -7.2187
    -7.2168  -5.2444  -4.1309  -3.8180  -3.7544  -3.3096  -3.3093  -3.2063
    -3.2042  -3.1812  -3.1803  -2.9475  -2.7623  -2.5764  -2.5754  -2.2636
    -2.0834  -2.0828  -1.7311  -1.7271  -1.7256  -1.5684  -1.5637  -1.5414
    -1.4606  -1.3964  -1.3947  -1.3206  -1.2063  -1.2042  -1.1631  -1.0935
    -1.0113  -1.0109  -1.0005  -1.0000  -0.9091  -0.8854  -0.8850  -0.8605
    -0.8592  -0.8378  -0.8371  -0.7352  -0.6706  -0.6396  -0.6392  -0.6249
    -0.5058  -0.4914  -0.4139  -0.4135  -0.3746  -0.3723  -0.3486  -0.3245
    -0.3237  -0.2691  -0.2687  -0.2153  -0.2129  -0.1977  -0.1272  -0.0999
    -0.0991  -0.0580  -0.0490   0.0301   0.0316   0.0946   0.0998   0.2484
     0.2566   0.2589   0.3345   0.3345   0.3367   0.3396   0.4172   0.4175
     0.4221   0.4319   0.4599   0.4739   0.5009   0.6009   0.6022   0.6223
     0.6704   0.6742   0.6748   0.6761   0.7900   0.8067   0.8382   0.8448
     0.9119   0.9136   0.9479   0.9705   0.9707   0.9717   0.9721   1.0284
     1.0433   1.0433   1.0810   1.0822   1.1030   1.1380   1.1385   1.2409
     1.2426   1.2451   1.2569   1.2594   1.2599   1.2817   1.3235   1.3245
     1.3633   1.3827   1.3870   1.3911   1.4263   1.4269   1.5311   1.5342
     1.5342   1.5793   1.5901   1.5903   1.6629   1.6791   1.6863   1.7173
     1.7190   1.7198   1.7330   1.7806   1.7838   1.8877   1.8881   1.8974
     1.9641   1.9650   1.9822   2.0097   2.0105   2.0694   2.0767   2.0930
     2.1513   2.1757   2.1809   2.1830   2.1915   2.2093   2.2097   2.2449
     2.2454   2.2651   2.2654   2.4011   2.4077   2.4519   2.4523   2.4661
     2.4675   2.5288   2.5296   2.5840   2.5856   2.6045   2.6048   2.6067
     2.6732   2.6795   2.6798   2.7251   2.7520   2.7526   2.7550   2.7553
     2.8043   2.8167   2.8391   2.8413   2.8464   2.8976   2.8987   2.9102
     2.9111   2.9270   2.9359   3.0090   3.0639   3.1789   3.2372   3.2389
     3.2488   3.2501   3.5612   3.5612   3.6467   3.6983   3.7012   3.9214
     4.0910   4.1571   4.1572   4.2721   4.3849   4.3873   4.8489   4.8523
     5.2705   5.2730   5.3753   5.3758   5.4166   5.7468   5.7503   5.9558
     6.1708   6.2459   6.2511   6.3143   6.3765   6.3782   6.4361   6.4393
     7.2798   7.2827   7.3012   7.3126   7.6700   7.7806   7.7855   7.8046
     8.7433   8.7757   8.8651   9.1705   9.1918   9.2668   9.2988   9.3201
     9.5274   9.8537   9.8540   9.9954  10.0515  10.0559  10.2055  10.2077
    10.2501  10.3920  10.7775  11.0855  11.0882  11.1521  11.1645  11.1812
    11.1823  11.2196  11.2208  11.2315  11.4077  11.5750  11.5802  11.6867
    12.0673  12.0787  12.2343  12.2587  12.5112  12.5943  12.5949  12.7243
    12.7338  12.9523  12.9557  13.1551  13.4388  13.4422  13.5407  13.5415
    13.6451  13.6706

          k = 0.0442 0.0765 0.0000 ( 34881 PWs)   bands (ev):

   -10.2175 -10.2174 -10.2173  -8.1180  -8.1168  -8.1166  -7.3145  -7.3144
    -7.3123  -4.4833  -4.4832  -4.4832  -3.6954  -3.6948  -3.6947  -3.1805
    -3.1801  -3.1800  -2.8531  -2.8530  -2.8513  -2.3403  -2.3394  -2.3393
    -2.0823  -2.0822  -2.0816  -1.5921  -1.5889  -1.5888  -1.4789  -1.4783
    -1.4783  -1.2514  -1.2472  -1.2471  -1.1663  -1.1649  -1.1649  -1.0858
    -1.0844  -1.0844  -1.0488  -1.0488  -1.0462  -0.8852  -0.8843  -0.8842
    -0.8377  -0.8377  -0.8323  -0.7490  -0.7459  -0.7459  -0.6188  -0.6187
    -0.6163  -0.5299  -0.5299  -0.5285  -0.5037  -0.5037  -0.5028  -0.3889
    -0.3889  -0.3879  -0.2068  -0.2068  -0.2012  -0.0774  -0.0773  -0.0630
     0.0312   0.0312   0.0315   0.0793   0.0825   0.0825   0.2922   0.2923
     0.2924   0.2925   0.2929   0.2995   0.3001   0.3150   0.3150   0.4352
     0.4353   0.4379   0.5104   0.5104   0.5105   0.5352   0.5361   0.5361
     0.6746   0.6746   0.6761   0.6819   0.6819   0.6820   0.8617   0.8652
     0.8652   0.9213   0.9213   0.9214   1.0120   1.0120   1.0129   1.0130
     1.0130   1.0172   1.0599   1.0658   1.0658   1.1209   1.1210   1.1213
     1.1599   1.1652   1.1653   1.3188   1.3214   1.3214   1.3954   1.3957
     1.3957   1.4232   1.4234   1.4235   1.5119   1.5119   1.5177   1.5573
     1.5573   1.5589   1.5767   1.5826   1.5826   1.5930   1.5930   1.5932
     1.7186   1.7186   1.7189   1.9215   1.9227   1.9227   1.9233   1.9234
     1.9234   1.9880   1.9913   1.9913   2.0179   2.0179   2.0226   2.0577
     2.0577   2.0584   2.0872   2.0902   2.0902   2.2009   2.2010   2.2013
     2.2817   2.2817   2.2818   2.3121   2.3121   2.3125   2.4538   2.4539
     2.4545   2.5833   2.5834   2.5834   2.6593   2.6598   2.6598   2.6775
     2.6795   2.6795   2.7902   2.7902   2.7914   2.8069   2.8069   2.8085
     2.9039   2.9050   2.9050   2.9169   2.9184   2.9185   2.9234   2.9235
     2.9245   3.0062   3.0097   3.0098   3.3513   3.3514   3.3518   3.6757
     3.6758   3.6758   3.7578   3.7579   3.7680   3.7681   3.7703   3.7705
     4.6062   4.6142   4.6156   4.6156   4.6232   4.6232   5.0073   5.0080
     5.0081   5.2285   5.2295   5.2296   5.3542   5.3607   5.3607   5.6323
     5.6323   5.6354   5.9646   5.9655   5.9655   6.3656   6.3656   6.3682
     6.5492   6.5530   6.5530   7.2867   7.2906   7.2906   8.4125   8.4131
     8.4132   8.7184   8.7184   8.7680   9.0538   9.0579   9.0579   9.6043
     9.6043   9.6122   9.6246   9.6273   9.6282   9.9407   9.9420   9.9423
    10.2749  10.3185  10.3185  11.3850  11.3868  11.3876  11.4537  11.4537
    11.4680  11.4695  11.4695  11.4747  12.1433  12.1479  12.1483  12.3918
    12.3919  12.3934  12.5165  12.5171  12.5171  12.7483  12.7491  12.7573
    13.1130  13.1157  13.1162  13.1583  13.1583  13.1603  13.6142  13.6212
    13.6214  14.2041

          k = 0.0442-0.0255 0.0000 ( 34862 PWs)   bands (ev):

   -10.7893  -9.9450  -9.1805  -9.1803  -7.9683  -7.9667  -7.6141  -7.2187
    -7.2168  -5.2444  -4.1309  -3.8180  -3.7544  -3.3096  -3.3093  -3.2063
    -3.2042  -3.1812  -3.1803  -2.9475  -2.7623  -2.5764  -2.5754  -2.2636
    -2.0834  -2.0828  -1.7311  -1.7271  -1.7256  -1.5684  -1.5637  -1.5414
    -1.4606  -1.3964  -1.3947  -1.3206  -1.2063  -1.2042  -1.1631  -1.0935
    -1.0113  -1.0109  -1.0005  -1.0000  -0.9091  -0.8854  -0.8850  -0.8605
    -0.8592  -0.8378  -0.8371  -0.7352  -0.6706  -0.6396  -0.6392  -0.6249
    -0.5058  -0.4914  -0.4139  -0.4135  -0.3746  -0.3723  -0.3486  -0.3245
    -0.3237  -0.2691  -0.2687  -0.2153  -0.2129  -0.1977  -0.1272  -0.0999
    -0.0991  -0.0580  -0.0490   0.0301   0.0316   0.0946   0.0998   0.2484
     0.2566   0.2589   0.3345   0.3345   0.3367   0.3396   0.4172   0.4175
     0.4221   0.4319   0.4599   0.4739   0.5009   0.6009   0.6022   0.6223
     0.6704   0.6742   0.6748   0.6761   0.7900   0.8067   0.8382   0.8448
     0.9119   0.9136   0.9479   0.9705   0.9707   0.9717   0.9721   1.0284
     1.0433   1.0433   1.0810   1.0822   1.1030   1.1380   1.1385   1.2409
     1.2426   1.2451   1.2569   1.2594   1.2599   1.2817   1.3235   1.3245
     1.3633   1.3827   1.3870   1.3911   1.4263   1.4269   1.5311   1.5342
     1.5342   1.5793   1.5901   1.5903   1.6629   1.6791   1.6863   1.7173
     1.7190   1.7198   1.7330   1.7806   1.7838   1.8877   1.8881   1.8974
     1.9641   1.9650   1.9822   2.0097   2.0105   2.0694   2.0767   2.0930
     2.1513   2.1757   2.1809   2.1830   2.1915   2.2093   2.2097   2.2449
     2.2454   2.2651   2.2654   2.4011   2.4077   2.4519   2.4523   2.4661
     2.4675   2.5288   2.5296   2.5840   2.5856   2.6045   2.6048   2.6067
     2.6732   2.6795   2.6798   2.7251   2.7520   2.7526   2.7550   2.7553
     2.8043   2.8167   2.8391   2.8413   2.8464   2.8976   2.8987   2.9102
     2.9111   2.9270   2.9359   3.0090   3.0639   3.1789   3.2372   3.2389
     3.2488   3.2501   3.5612   3.5612   3.6467   3.6983   3.7012   3.9214
     4.0910   4.1571   4.1572   4.2721   4.3849   4.3873   4.8489   4.8523
     5.2705   5.2730   5.3753   5.3758   5.4166   5.7468   5.7503   5.9558
     6.1708   6.2459   6.2511   6.3143   6.3765   6.3782   6.4361   6.4393
     7.2798   7.2827   7.3012   7.3126   7.6700   7.7806   7.7855   7.8046
     8.7433   8.7757   8.8651   9.1705   9.1918   9.2668   9.2988   9.3201
     9.5274   9.8537   9.8541   9.9954  10.0515  10.0559  10.2055  10.2077
    10.2501  10.3919  10.7775  11.0854  11.0884  11.1521  11.1645  11.1812
    11.1823  11.2195  11.2209  11.2315  11.4077  11.5750  11.5802  11.6867
    12.0673  12.0787  12.2343  12.2587  12.5112  12.5942  12.5949  12.7243
    12.7339  12.9523  12.9557  13.1551  13.4386  13.4423  13.5406  13.5416
    13.6451  13.6705

     the Fermi energy is     2.7084 ev

!    total energy              =   -3728.65714128 Ry
     Harris-Foulkes estimate   =   -3728.65712433 Ry
     estimated scf accuracy    <       0.00000042 Ry

     The total energy is the sum of the following terms:

     one-electron contribution =  -25511.71221300 Ry
     hartree contribution      =   13172.26470503 Ry
     xc contribution           =   -1541.67991912 Ry
     ewald contribution        =   10152.61450924 Ry
     electric field correction =       0.00069855 Ry
     smearing contrib. (-TS)   =      -0.14492198 Ry

     total magnetization       =    20.23 Bohr mag/cell
     absolute magnetization    =    22.81 Bohr mag/cell

     convergence has been achieved in  18 iterations

     Forces acting on atoms (Ry/au):


     negative rho (up, down):  2.168E-04 2.020E-04
     atom    1 type  1   force =     0.00005465   -0.00002374    0.00398721
     atom    2 type  1   force =     0.00001156   -0.00012434   -0.00704014
     atom    3 type  1   force =    -0.00004554    0.00037984    0.00148359
     atom    4 type  1   force =    -0.00003171    0.00005289    0.00114691
     atom    5 type  1   force =    -0.00007310    0.00009916    0.00394063
     atom    6 type  1   force =    -0.00007633    0.00010217   -0.00707391
     atom    7 type  1   force =    -0.00010085    0.00059380    0.00142114
     atom    8 type  1   force =    -0.00003382    0.00015125    0.00114273
     atom    9 type  1   force =     0.00002762    0.00006314    0.00402011
     atom   10 type  1   force =    -0.00010273    0.00005771   -0.00706537
     atom   11 type  1   force =    -0.00005390    0.00043309    0.00141548
     atom   12 type  1   force =    -0.00007089    0.00002839    0.00113509
     atom   13 type  1   force =    -0.00003283   -0.00004121    0.00395542
     atom   14 type  1   force =     0.00003379    0.00002350   -0.00700302
     atom   15 type  1   force =     0.00007402    0.00047161    0.00143564
     atom   16 type  1   force =     0.00002389    0.00009286    0.00109898
     atom   17 type  1   force =     0.00000476   -0.00000334    0.00389764
     atom   18 type  1   force =     0.00015102    0.00013124   -0.00698843
     atom   19 type  1   force =     0.00009468    0.00060674    0.00144040
     atom   20 type  1   force =     0.00003770    0.00021181    0.00108943
     atom   21 type  1   force =    -0.00014939    0.00007790    0.00395024
     atom   22 type  1   force =     0.00006585    0.00012235   -0.00694429
     atom   23 type  1   force =     0.00000652    0.00054473    0.00140952
     atom   24 type  1   force =     0.00005957    0.00006701    0.00110803
     atom   25 type  1   force =    -0.00002132    0.00009906    0.00399031
     atom   26 type  1   force =    -0.00004625   -0.00005900   -0.00699728
     atom   27 type  1   force =    -0.00002959    0.00045351    0.00138927
     atom   28 type  1   force =     0.00000688    0.00007448    0.00115102
     atom   29 type  1   force =     0.00006770    0.00007680    0.00397312
     atom   30 type  1   force =    -0.00007379    0.00013446   -0.00706904
     atom   31 type  1   force =     0.00000627    0.00060096    0.00135336
     atom   32 type  1   force =    -0.00000345    0.00021323    0.00112275
     atom   33 type  1   force =     0.00012230    0.00005718    0.00401527
     atom   34 type  1   force =     0.00003773    0.00000986   -0.00697754
     atom   35 type  1   force =     0.00004658    0.00048022    0.00138925
     atom   36 type  1   force =     0.00001244    0.00003115    0.00113690
     atom   37 type  2   force =     0.00000213   -0.00070645    0.00052353
     atom   38 type  2   force =    -0.00000697   -0.00070646    0.00051350
     atom   39 type  2   force =     0.00000544   -0.00070143    0.00049543
     atom   40 type  2   force =    -0.00000568   -0.00070147    0.00049163
     atom   41 type  2   force =     0.00000833   -0.00069906    0.00047576
     atom   42 type  2   force =    -0.00000323   -0.00069452    0.00052499
     atom   43 type  2   force =     0.00000585   -0.00068729    0.00050141
     atom   44 type  2   force =    -0.00000346   -0.00070214    0.00051423
     atom   45 type  2   force =    -0.00000248   -0.00069164    0.00051909

     Total force =     0.024981     Total SCF correction =     0.001580
 !ASE

     Writing output data file calc.save
 
     init_run     :     29.54s CPU     34.15s WALL (       1 calls)
     electrons    :  13275.54s CPU  15201.16s WALL (       5 calls)
     update_pot   :      8.87s CPU      9.49s WALL (       4 calls)
     forces       :    240.22s CPU    253.46s WALL (       5 calls)

     Called by init_run:
     wfcinit      :     20.11s CPU     24.17s WALL (       1 calls)
     potinit      :      0.90s CPU      1.01s WALL (       1 calls)

     Called by electrons:
     c_bands      :   9073.21s CPU  10547.34s WALL (     181 calls)
     sum_band     :   3053.66s CPU   3421.76s WALL (     181 calls)
     v_of_rho     :     62.09s CPU     73.11s WALL (     186 calls)
     newd         :   1098.30s CPU   1168.12s WALL (     186 calls)
     mix_rho      :     12.58s CPU     15.38s WALL (     181 calls)

     Called by c_bands:
     init_us_2    :     44.66s CPU     47.54s WALL (    3680 calls)
     cegterg      :   8819.99s CPU  10282.54s WALL (    1810 calls)

     Called by *egterg:
     h_psi        :   4287.55s CPU   5411.44s WALL (    5998 calls)
     s_psi        :    728.96s CPU    759.15s WALL (    5998 calls)
     g_psi        :     16.63s CPU     17.23s WALL (    4178 calls)
     cdiaghg      :   1862.15s CPU   1909.49s WALL (    5948 calls)

     Called by h_psi:
     add_vuspsi   :    735.75s CPU    765.12s WALL (    5998 calls)

     General routines
     calbec       :   1129.53s CPU   1157.86s WALL (    7858 calls)
     fft          :     55.94s CPU     66.86s WALL (    5811 calls)
     ffts         :      0.92s CPU      1.22s WALL (     734 calls)
     fftw         :   2355.31s CPU   3661.11s WALL ( 2879870 calls)
     interpolate  :      6.97s CPU     10.15s WALL (     734 calls)
     davcio       :      0.03s CPU      0.84s WALL (      10 calls)
 
     Parallel routines
     fft_scatter  :   1387.10s CPU   2158.56s WALL ( 2886415 calls)
 
     PWSCF        :     3h46m CPU        4h18m WALL

 
   This run was terminated on:   1:56: 3  21Apr2017            

=------------------------------------------------------------------------------=
   JOB DONE.
=------------------------------------------------------------------------------=
