  python dir          : /home/vossj/suncat/lib/python2.7/site-packages/espresso
  espresso dir        : /home/vossj/suncat/esdld/espresso-dynpy-beef/bin
  pseudo dir          : /home/alatimer/bin/psp/esp_psp_w_gbrvRu/
  ase-espresso py git : ffa2778-git



     Program PWSCF v.5.1rc2 (svn rev. ) starts on 10Mar2017 at 14:57:20 

     This program is part of the open-source Quantum ESPRESSO suite
     for quantum simulation of materials; please cite
         "P. Giannozzi et al., J. Phys.:Condens. Matter 21 395502 (2009);
          URL http://www.quantum-espresso.org", 
     in publications or presentations arising from this work. More details at
     http://www.quantum-espresso.org/quote

     Parallel version (MPI), running on    16 processors
     R & G space division:  proc/nbgrp/npool/nimage =      16
     Reading input from pw.inp
     Message from routine read_cards :
     DEPRECATED: no units specified in CELL_PARAMETERS card

     Current dimensions of program PWSCF are:
     Max number of different atomic species (ntypx) = 10
     Max number of k-points (npk) =  40000
     Max angular momentum in pseudopotentials (lmaxx) =  3
     Presently no symmetry can be used with electric field


     IMPORTANT: XC functional enforced from input :
     Exchange-correlation      = RPBE ( 1  4 28  4 0)
     Any further DFT definition will be discarded
     Please, verify this is what you really want

               file Ni.UPF: wavefunction(s)  3D renormalized

     Subspace diagonalization in iterative solution of the eigenvalue problem:
     a serial algorithm will be used

 
     Parallelization info
     --------------------
     sticks:   dense  smooth     PW     G-vecs:    dense   smooth      PW
     Min         386     154     42                68872    17389    2480
     Max         387     155     43                68885    17439    2491
     Sum        6181    2479    673              1102011   278611   39737
 
     Generating pointlists ...
     new r_m :   0.4125 (alat units)  0.7795 (a.u.) for type    1
     new r_m :   0.4125 (alat units)  0.7795 (a.u.) for type    2


     bravais-lattice index     =            0
     lattice parameter (alat)  =       1.8897  a.u.
     unit-cell volume          =    7046.4111 (a.u.)^3
     number of atoms/cell      =           37
     number of atomic types    =            2
     number of electrons       =       364.00
     number of Kohn-Sham states=          282
     kinetic-energy cutoff     =      44.0992  Ry
     charge density cutoff     =     440.9919  Ry
     convergence threshold     =      7.3E-07
     mixing beta               =       0.1000
     number of iterations used =           10  plain     mixing
     Exchange-correlation      = RPBE ( 1  4 28  4 0)
     nstep                     =           50


     celldm(1)=   1.889726  celldm(2)=   0.000000  celldm(3)=   0.000000
     celldm(4)=   0.000000  celldm(5)=   0.000000  celldm(6)=   0.000000

     crystal axes: (cart. coord. in units of alat)
               a(1) = (   7.548011   0.000000   0.000000 )  
               a(2) = (  -3.774005   6.536769   0.000000 )  
               a(3) = (   0.000000   0.000000  21.162925 )  

     reciprocal axes: (cart. coord. in units 2 pi/alat)
               b(1) = (  0.132485  0.076490  0.000000 )  
               b(2) = (  0.000000  0.152981  0.000000 )  
               b(3) = (  0.000000  0.000000  0.047252 )  


     PseudoPot. # 1 for Ni read from file:
     /home/alatimer/bin/psp/esp_psp_w_gbrvRu/Ni.UPF
     MD5 check sum: 8b2449ee0060d9c33484ccd47bb60870
     Pseudo is Ultrasoft + core correction, Zval = 10.0
     Generated using "atomic" code by A. Dal Corso  v.5.0.2 svn rev. 9415
     Using radial grid of 1195 points,  6 beta functions with: 
                l(1) =   0
                l(2) =   0
                l(3) =   1
                l(4) =   1
                l(5) =   2
                l(6) =   2
     Q(r) pseudized with 0 coefficients 


     PseudoPot. # 2 for  C read from file:
     /home/alatimer/bin/psp/esp_psp_w_gbrvRu/C.UPF
     MD5 check sum: ab446d787031eba755f1d5ee46644bb0
     Pseudo is Ultrasoft + core correction, Zval =  4.0
     Generated using "atomic" code by A. Dal Corso  v.5.0.2 svn rev. 9415
     Using radial grid of 1073 points,  4 beta functions with: 
                l(1) =   0
                l(2) =   0
                l(3) =   1
                l(4) =   1
     Q(r) pseudized with 0 coefficients 


     atomic species   valence    mass     pseudopotential
        Ni1           10.00    58.69340     Ni( 1.00)
        C1             4.00    12.01100      C( 1.00)

     Starting magnetic structure 
     atomic species   magnetization
        Ni1          0.300
        C1           0.750

     No symmetry found



   Cartesian axes

     site n.     atom                  positions (alat units)
         1           Ni1 tau(   1) = (   0.0000000   0.0000000   7.5000000  )
         2           Ni1 tau(   2) = (   1.2580018   0.7263077   9.5543084  )
         3           Ni1 tau(   3) = (   0.0000000   1.4526154  11.6086168  )
         4           Ni1 tau(   4) = (   1.2580018   2.1789231  13.6629252  )
         5           Ni1 tau(   5) = (  -1.2580018   2.1789231   7.5000000  )
         6           Ni1 tau(   6) = (   0.0000000   2.9052308   9.5543084  )
         7           Ni1 tau(   7) = (  -1.2580018   3.6315385  11.6086168  )
         8           Ni1 tau(   8) = (  -0.0000000   4.3578462  13.6629252  )
         9           Ni1 tau(   9) = (  -2.5160037   4.3578462   7.5000000  )
        10           Ni1 tau(  10) = (  -1.2580018   5.0841539   9.5543084  )
        11           Ni1 tau(  11) = (  -2.5160037   5.8104616  11.6086168  )
        12           Ni1 tau(  12) = (  -1.2580018   6.5367693  13.6629252  )
        13           Ni1 tau(  13) = (   2.5160037   0.0000000   7.5000000  )
        14           Ni1 tau(  14) = (   3.7740055   0.7263077   9.5543084  )
        15           Ni1 tau(  15) = (   2.5160037   1.4526154  11.6086168  )
        16           Ni1 tau(  16) = (   3.7740055   2.1789231  13.6629252  )
        17           Ni1 tau(  17) = (   1.2580018   2.1789231   7.5000000  )
        18           Ni1 tau(  18) = (   2.5160037   2.9052308   9.5543084  )
        19           Ni1 tau(  19) = (   1.2580018   3.6315385  11.6086168  )
        20           Ni1 tau(  20) = (   2.5160037   4.3578462  13.6629252  )
        21           Ni1 tau(  21) = (  -0.0000000   4.3578462   7.5000000  )
        22           Ni1 tau(  22) = (   1.2580018   5.0841539   9.5543084  )
        23           Ni1 tau(  23) = (  -0.0000000   5.8104616  11.6086168  )
        24           Ni1 tau(  24) = (   1.2580018   6.5367693  13.6629252  )
        25           Ni1 tau(  25) = (   5.0320073   0.0000000   7.5000000  )
        26           Ni1 tau(  26) = (   6.2900092   0.7263077   9.5543084  )
        27           Ni1 tau(  27) = (   5.0320073   1.4526154  11.6086168  )
        28           Ni1 tau(  28) = (   6.2900092   2.1789231  13.6629252  )
        29           Ni1 tau(  29) = (   3.7740055   2.1789231   7.5000000  )
        30           Ni1 tau(  30) = (   5.0320073   2.9052308   9.5543084  )
        31           Ni1 tau(  31) = (   3.7740055   3.6315385  11.6086168  )
        32           Ni1 tau(  32) = (   5.0320073   4.3578462  13.6629252  )
        33           Ni1 tau(  33) = (   2.5160037   4.3578462   7.5000000  )
        34           Ni1 tau(  34) = (   3.7740055   5.0841539   9.5543084  )
        35           Ni1 tau(  35) = (   2.5160037   5.8104616  11.6086168  )
        36           Ni1 tau(  36) = (   3.7740055   6.5367693  13.6629252  )
        37           C1  tau(  37) = (   1.2779842   3.7014767  14.8602763  )

     number of k points=    10  Fermi-Dirac smearing, width (Ry)=  0.0073
                       cart. coord. in units 2pi/alat
        k(    1) = (   0.0000000   0.0000000   0.0000000), wk =   0.1111111
        k(    2) = (   0.0000000   0.0509936   0.0000000), wk =   0.2222222
        k(    3) = (   0.0441617   0.0254968   0.0000000), wk =   0.2222222
        k(    4) = (   0.0441617   0.0764904   0.0000000), wk =   0.2222222
        k(    5) = (   0.0441617  -0.0254968   0.0000000), wk =   0.2222222
        k(    6) = (   0.0000000   0.0000000   0.0000000), wk =   0.1111111
        k(    7) = (   0.0000000   0.0509936   0.0000000), wk =   0.2222222
        k(    8) = (   0.0441617   0.0254968   0.0000000), wk =   0.2222222
        k(    9) = (   0.0441617   0.0764904   0.0000000), wk =   0.2222222
        k(   10) = (   0.0441617  -0.0254968   0.0000000), wk =   0.2222222

     Dense  grid:  1102011 G-vectors     FFT dimensions: (  96,  96, 270)

     Smooth grid:   278611 G-vectors     FFT dimensions: (  64,  64, 180)

     Largest allocated arrays     est. size (Mb)     dimensions
        Kohn-Sham Wavefunctions         9.39 Mb     (    2183,  282)
        NL pseudopotentials            21.85 Mb     (    2183,  656)
        Each V/rho on FFT grid          4.78 Mb     (  156672,   2)
        Each G-vector array             0.53 Mb     (   68874)
        G-vector shells                 0.19 Mb     (   24563)
     Largest temporary arrays     est. size (Mb)     dimensions
        Auxiliary wavefunctions        37.57 Mb     (    2183, 1128)
        Each subspace H/S matrix       19.42 Mb     (    1128, 1128)
        Each <psi_i|beta_j> matrix      2.82 Mb     (     656,  282)
        Arrays for rho mixing          23.91 Mb     (  156672,   10)

     Initial potential from superposition of free atoms
     Check: negative starting charge=(component1):   -0.000345
     Check: negative starting charge=(component2):   -0.000192

     starting charge  363.99092, renormalised to  364.00000

     negative rho (up, down):  3.452E-04 1.915E-04
 
     Adding external electric field

     Computed dipole along edir(3) : 
        Dipole               -0.0005 Ry au,         -0.0012 Debye
        Dipole field         -0.0000 Ry au
 
        Potential amp.        0.0001 Ry
        Total length         38.9923 bohr
 
 
     Adding external electric field

     Computed dipole along edir(3) : 
        Dipole               -0.0005 Ry au,         -0.0012 Debye
        Dipole field         -0.0000 Ry au
 
        Potential amp.        0.0001 Ry
        Total length         38.9923 bohr
 
     Starting wfc are  328 randomized atomic wfcs

     total cpu time spent up to now is       31.8 secs

     Self-consistent Calculation

     iteration #  1     ecut=    44.10 Ry     beta=0.10
     Davidson diagonalization with overlap
     ethr =  1.00E-02,  avg # of iterations =  6.9

     negative rho (up, down):  3.090E-04 1.670E-04
 
     Adding external electric field

     Computed dipole along edir(3) : 
        Dipole               -0.9388 Ry au,         -2.3863 Debye
        Dipole field         -0.0017 Ry au
 
        Potential amp.        0.1306 Ry
        Total length         38.9923 bohr
 
 
     Adding external electric field

     Computed dipole along edir(3) : 
        Dipole               -0.9388 Ry au,         -2.3863 Debye
        Dipole field         -0.0017 Ry au
 
        Potential amp.        0.1306 Ry
        Total length         38.9923 bohr
 
 
     Magnetic moment per site:
     atom:    1    charge:    3.9471    magn:    1.1281    constr:    0.0000
     atom:    2    charge:    3.9665    magn:    1.1130    constr:    0.0000
     atom:    3    charge:    3.9682    magn:    1.1112    constr:    0.0000
     atom:    4    charge:    3.9589    magn:    1.1139    constr:    0.0000
     atom:    5    charge:    3.9462    magn:    1.1288    constr:    0.0000
     atom:    6    charge:    3.9662    magn:    1.1132    constr:    0.0000
     atom:    7    charge:    3.9685    magn:    1.1110    constr:    0.0000
     atom:    8    charge:    3.9604    magn:    1.1121    constr:    0.0000
     atom:    9    charge:    3.9471    magn:    1.1281    constr:    0.0000
     atom:   10    charge:    3.9665    magn:    1.1130    constr:    0.0000
     atom:   11    charge:    3.9669    magn:    1.1130    constr:    0.0000
     atom:   12    charge:    3.9482    magn:    1.1275    constr:    0.0000
     atom:   13    charge:    3.9470    magn:    1.1281    constr:    0.0000
     atom:   14    charge:    3.9665    magn:    1.1129    constr:    0.0000
     atom:   15    charge:    3.9682    magn:    1.1113    constr:    0.0000
     atom:   16    charge:    3.9477    magn:    1.1283    constr:    0.0000
     atom:   17    charge:    3.9468    magn:    1.1283    constr:    0.0000
     atom:   18    charge:    3.9662    magn:    1.1132    constr:    0.0000
     atom:   19    charge:    3.9687    magn:    1.1113    constr:    0.0000
     atom:   20    charge:    3.9610    magn:    1.1113    constr:    0.0000
     atom:   21    charge:    3.9467    magn:    1.1283    constr:    0.0000
     atom:   22    charge:    3.9663    magn:    1.1131    constr:    0.0000
     atom:   23    charge:    3.9684    magn:    1.1112    constr:    0.0000
     atom:   24    charge:    3.9479    magn:    1.1282    constr:    0.0000
     atom:   25    charge:    3.9463    magn:    1.1286    constr:    0.0000
     atom:   26    charge:    3.9665    magn:    1.1129    constr:    0.0000
     atom:   27    charge:    3.9666    magn:    1.1123    constr:    0.0000
     atom:   28    charge:    3.9477    magn:    1.1284    constr:    0.0000
     atom:   29    charge:    3.9462    magn:    1.1288    constr:    0.0000
     atom:   30    charge:    3.9665    magn:    1.1128    constr:    0.0000
     atom:   31    charge:    3.9686    magn:    1.1109    constr:    0.0000
     atom:   32    charge:    3.9482    magn:    1.1274    constr:    0.0000
     atom:   33    charge:    3.9467    magn:    1.1283    constr:    0.0000
     atom:   34    charge:    3.9665    magn:    1.1130    constr:    0.0000
     atom:   35    charge:    3.9685    magn:    1.1111    constr:    0.0000
     atom:   36    charge:    3.9482    magn:    1.1275    constr:    0.0000
     atom:   37    charge:    0.5799    magn:    0.4026    constr:    0.0000

     total cpu time spent up to now is      154.5 secs

     total energy              =   -3632.14907608 Ry
     Harris-Foulkes estimate   =   -3632.98582302 Ry
     estimated scf accuracy    <       9.51789119 Ry

     total magnetization       =    37.52 Bohr mag/cell
     absolute magnetization    =    37.53 Bohr mag/cell

     iteration #  2     ecut=    44.10 Ry     beta=0.10
     Davidson diagonalization with overlap
     ethr =  2.61E-03,  avg # of iterations =  2.8

     negative rho (up, down):  3.058E-04 1.889E-04
 
     Adding external electric field

     Computed dipole along edir(3) : 
        Dipole                0.5905 Ry au,          1.5008 Debye
        Dipole field          0.0011 Ry au
 
        Potential amp.       -0.0821 Ry
        Total length         38.9923 bohr
 
 
     Adding external electric field

     Computed dipole along edir(3) : 
        Dipole                0.5905 Ry au,          1.5008 Debye
        Dipole field          0.0011 Ry au
 
        Potential amp.       -0.0821 Ry
        Total length         38.9923 bohr
 
 
     Magnetic moment per site:
     atom:    1    charge:    3.9597    magn:    1.1088    constr:    0.0000
     atom:    2    charge:    3.9646    magn:    1.1035    constr:    0.0000
     atom:    3    charge:    3.9553    magn:    1.1118    constr:    0.0000
     atom:    4    charge:    3.9596    magn:    1.1027    constr:    0.0000
     atom:    5    charge:    3.9590    magn:    1.1094    constr:    0.0000
     atom:    6    charge:    3.9644    magn:    1.1036    constr:    0.0000
     atom:    7    charge:    3.9554    magn:    1.1117    constr:    0.0000
     atom:    8    charge:    3.9606    magn:    1.1008    constr:    0.0000
     atom:    9    charge:    3.9597    magn:    1.1088    constr:    0.0000
     atom:   10    charge:    3.9646    magn:    1.1035    constr:    0.0000
     atom:   11    charge:    3.9548    magn:    1.1131    constr:    0.0000
     atom:   12    charge:    3.9542    magn:    1.1135    constr:    0.0000
     atom:   13    charge:    3.9597    magn:    1.1088    constr:    0.0000
     atom:   14    charge:    3.9645    magn:    1.1034    constr:    0.0000
     atom:   15    charge:    3.9553    magn:    1.1118    constr:    0.0000
     atom:   16    charge:    3.9540    magn:    1.1143    constr:    0.0000
     atom:   17    charge:    3.9595    magn:    1.1089    constr:    0.0000
     atom:   18    charge:    3.9644    magn:    1.1036    constr:    0.0000
     atom:   19    charge:    3.9540    magn:    1.1136    constr:    0.0000
     atom:   20    charge:    3.9610    magn:    1.1001    constr:    0.0000
     atom:   21    charge:    3.9594    magn:    1.1090    constr:    0.0000
     atom:   22    charge:    3.9644    magn:    1.1036    constr:    0.0000
     atom:   23    charge:    3.9553    magn:    1.1118    constr:    0.0000
     atom:   24    charge:    3.9540    magn:    1.1142    constr:    0.0000
     atom:   25    charge:    3.9591    magn:    1.1093    constr:    0.0000
     atom:   26    charge:    3.9645    magn:    1.1034    constr:    0.0000
     atom:   27    charge:    3.9550    magn:    1.1119    constr:    0.0000
     atom:   28    charge:    3.9540    magn:    1.1143    constr:    0.0000
     atom:   29    charge:    3.9590    magn:    1.1094    constr:    0.0000
     atom:   30    charge:    3.9645    magn:    1.1033    constr:    0.0000
     atom:   31    charge:    3.9554    magn:    1.1116    constr:    0.0000
     atom:   32    charge:    3.9542    magn:    1.1135    constr:    0.0000
     atom:   33    charge:    3.9594    magn:    1.1090    constr:    0.0000
     atom:   34    charge:    3.9646    magn:    1.1035    constr:    0.0000
     atom:   35    charge:    3.9554    magn:    1.1118    constr:    0.0000
     atom:   36    charge:    3.9542    magn:    1.1136    constr:    0.0000
     atom:   37    charge:    0.5819    magn:    0.3997    constr:    0.0000

     total cpu time spent up to now is      230.1 secs

     total energy              =   -3631.76967872 Ry
     Harris-Foulkes estimate   =   -3634.50986739 Ry
     estimated scf accuracy    <      77.91823152 Ry

     total magnetization       =    41.04 Bohr mag/cell
     absolute magnetization    =    41.08 Bohr mag/cell

     iteration #  3     ecut=    44.10 Ry     beta=0.10
     Davidson diagonalization with overlap
     ethr =  2.61E-03,  avg # of iterations =  2.7

     negative rho (up, down):  3.068E-04 2.129E-04
 
     Adding external electric field

     Computed dipole along edir(3) : 
        Dipole               -0.3568 Ry au,         -0.9068 Debye
        Dipole field         -0.0006 Ry au
 
        Potential amp.        0.0496 Ry
        Total length         38.9923 bohr
 
 
     Adding external electric field

     Computed dipole along edir(3) : 
        Dipole               -0.3568 Ry au,         -0.9068 Debye
        Dipole field         -0.0006 Ry au
 
        Potential amp.        0.0496 Ry
        Total length         38.9923 bohr
 
 
     Magnetic moment per site:
     atom:    1    charge:    3.9615    magn:    1.0983    constr:    0.0000
     atom:    2    charge:    3.9582    magn:    1.0985    constr:    0.0000
     atom:    3    charge:    3.9543    magn:    1.1022    constr:    0.0000
     atom:    4    charge:    3.9651    magn:    1.0877    constr:    0.0000
     atom:    5    charge:    3.9611    magn:    1.0988    constr:    0.0000
     atom:    6    charge:    3.9581    magn:    1.0985    constr:    0.0000
     atom:    7    charge:    3.9543    magn:    1.1021    constr:    0.0000
     atom:    8    charge:    3.9656    magn:    1.0860    constr:    0.0000
     atom:    9    charge:    3.9615    magn:    1.0983    constr:    0.0000
     atom:   10    charge:    3.9582    magn:    1.0985    constr:    0.0000
     atom:   11    charge:    3.9546    magn:    1.1031    constr:    0.0000
     atom:   12    charge:    3.9635    magn:    1.0964    constr:    0.0000
     atom:   13    charge:    3.9615    magn:    1.0983    constr:    0.0000
     atom:   14    charge:    3.9582    magn:    1.0983    constr:    0.0000
     atom:   15    charge:    3.9543    magn:    1.1022    constr:    0.0000
     atom:   16    charge:    3.9635    magn:    1.0971    constr:    0.0000
     atom:   17    charge:    3.9615    magn:    1.0984    constr:    0.0000
     atom:   18    charge:    3.9581    magn:    1.0985    constr:    0.0000
     atom:   19    charge:    3.9528    magn:    1.1045    constr:    0.0000
     atom:   20    charge:    3.9658    magn:    1.0853    constr:    0.0000
     atom:   21    charge:    3.9614    magn:    1.0984    constr:    0.0000
     atom:   22    charge:    3.9581    magn:    1.0985    constr:    0.0000
     atom:   23    charge:    3.9543    magn:    1.1023    constr:    0.0000
     atom:   24    charge:    3.9635    magn:    1.0970    constr:    0.0000
     atom:   25    charge:    3.9612    magn:    1.0986    constr:    0.0000
     atom:   26    charge:    3.9582    magn:    1.0983    constr:    0.0000
     atom:   27    charge:    3.9547    magn:    1.1018    constr:    0.0000
     atom:   28    charge:    3.9635    magn:    1.0971    constr:    0.0000
     atom:   29    charge:    3.9611    magn:    1.0987    constr:    0.0000
     atom:   30    charge:    3.9582    magn:    1.0982    constr:    0.0000
     atom:   31    charge:    3.9543    magn:    1.1021    constr:    0.0000
     atom:   32    charge:    3.9635    magn:    1.0964    constr:    0.0000
     atom:   33    charge:    3.9615    magn:    1.0984    constr:    0.0000
     atom:   34    charge:    3.9582    magn:    1.0985    constr:    0.0000
     atom:   35    charge:    3.9543    magn:    1.1022    constr:    0.0000
     atom:   36    charge:    3.9635    magn:    1.0964    constr:    0.0000
     atom:   37    charge:    0.5845    magn:    0.3971    constr:    0.0000

     total cpu time spent up to now is      304.8 secs

     total energy              =   -3632.32932209 Ry
     Harris-Foulkes estimate   =   -3633.79722552 Ry
     estimated scf accuracy    <      88.51543048 Ry

     total magnetization       =    39.86 Bohr mag/cell
     absolute magnetization    =    39.93 Bohr mag/cell

     iteration #  4     ecut=    44.10 Ry     beta=0.10
     Davidson diagonalization with overlap
     ethr =  2.61E-03,  avg # of iterations =  1.0

     negative rho (up, down):  3.061E-04 2.174E-04
 
     Adding external electric field

     Computed dipole along edir(3) : 
        Dipole                0.0252 Ry au,          0.0640 Debye
        Dipole field          0.0000 Ry au
 
        Potential amp.       -0.0035 Ry
        Total length         38.9923 bohr
 
 
     Adding external electric field

     Computed dipole along edir(3) : 
        Dipole                0.0252 Ry au,          0.0640 Debye
        Dipole field          0.0000 Ry au
 
        Potential amp.       -0.0035 Ry
        Total length         38.9923 bohr
 
 
     Magnetic moment per site:
     atom:    1    charge:    3.9718    magn:    1.0516    constr:    0.0000
     atom:    2    charge:    3.9526    magn:    1.0627    constr:    0.0000
     atom:    3    charge:    3.9633    magn:    1.0550    constr:    0.0000
     atom:    4    charge:    3.9596    magn:    1.0481    constr:    0.0000
     atom:    5    charge:    3.9721    magn:    1.0515    constr:    0.0000
     atom:    6    charge:    3.9526    magn:    1.0627    constr:    0.0000
     atom:    7    charge:    3.9634    magn:    1.0548    constr:    0.0000
     atom:    8    charge:    3.9599    magn:    1.0449    constr:    0.0000
     atom:    9    charge:    3.9718    magn:    1.0516    constr:    0.0000
     atom:   10    charge:    3.9526    magn:    1.0627    constr:    0.0000
     atom:   11    charge:    3.9641    magn:    1.0557    constr:    0.0000
     atom:   12    charge:    3.9662    magn:    1.0573    constr:    0.0000
     atom:   13    charge:    3.9718    magn:    1.0516    constr:    0.0000
     atom:   14    charge:    3.9525    magn:    1.0625    constr:    0.0000
     atom:   15    charge:    3.9633    magn:    1.0551    constr:    0.0000
     atom:   16    charge:    3.9646    magn:    1.0597    constr:    0.0000
     atom:   17    charge:    3.9722    magn:    1.0512    constr:    0.0000
     atom:   18    charge:    3.9526    magn:    1.0627    constr:    0.0000
     atom:   19    charge:    3.9628    magn:    1.0574    constr:    0.0000
     atom:   20    charge:    3.9601    magn:    1.0435    constr:    0.0000
     atom:   21    charge:    3.9723    magn:    1.0512    constr:    0.0000
     atom:   22    charge:    3.9526    magn:    1.0627    constr:    0.0000
     atom:   23    charge:    3.9634    magn:    1.0551    constr:    0.0000
     atom:   24    charge:    3.9644    magn:    1.0598    constr:    0.0000
     atom:   25    charge:    3.9720    magn:    1.0514    constr:    0.0000
     atom:   26    charge:    3.9525    magn:    1.0625    constr:    0.0000
     atom:   27    charge:    3.9629    magn:    1.0553    constr:    0.0000
     atom:   28    charge:    3.9647    magn:    1.0597    constr:    0.0000
     atom:   29    charge:    3.9721    magn:    1.0515    constr:    0.0000
     atom:   30    charge:    3.9524    magn:    1.0624    constr:    0.0000
     atom:   31    charge:    3.9634    magn:    1.0548    constr:    0.0000
     atom:   32    charge:    3.9663    magn:    1.0572    constr:    0.0000
     atom:   33    charge:    3.9723    magn:    1.0512    constr:    0.0000
     atom:   34    charge:    3.9526    magn:    1.0627    constr:    0.0000
     atom:   35    charge:    3.9634    magn:    1.0550    constr:    0.0000
     atom:   36    charge:    3.9662    magn:    1.0573    constr:    0.0000
     atom:   37    charge:    0.5905    magn:    0.3848    constr:    0.0000

     total cpu time spent up to now is      372.6 secs

     total energy              =   -3633.04567340 Ry
     Harris-Foulkes estimate   =   -3633.16795860 Ry
     estimated scf accuracy    <      16.98030203 Ry

     total magnetization       =    37.98 Bohr mag/cell
     absolute magnetization    =    38.04 Bohr mag/cell

     iteration #  5     ecut=    44.10 Ry     beta=0.10
     Davidson diagonalization with overlap
     ethr =  2.61E-03,  avg # of iterations =  1.0

     negative rho (up, down):  3.020E-04 1.942E-04
 
     Adding external electric field

     Computed dipole along edir(3) : 
        Dipole               -0.2077 Ry au,         -0.5280 Debye
        Dipole field         -0.0004 Ry au
 
        Potential amp.        0.0289 Ry
        Total length         38.9923 bohr
 
 
     Adding external electric field

     Computed dipole along edir(3) : 
        Dipole               -0.2077 Ry au,         -0.5280 Debye
        Dipole field         -0.0004 Ry au
 
        Potential amp.        0.0289 Ry
        Total length         38.9923 bohr
 
 
     Magnetic moment per site:
     atom:    1    charge:    3.9810    magn:    0.9525    constr:    0.0000
     atom:    2    charge:    3.9611    magn:    0.9614    constr:    0.0000
     atom:    3    charge:    3.9622    magn:    0.9609    constr:    0.0000
     atom:    4    charge:    3.9619    magn:    0.9426    constr:    0.0000
     atom:    5    charge:    3.9806    magn:    0.9531    constr:    0.0000
     atom:    6    charge:    3.9612    magn:    0.9615    constr:    0.0000
     atom:    7    charge:    3.9622    magn:    0.9605    constr:    0.0000
     atom:    8    charge:    3.9605    magn:    0.9373    constr:    0.0000
     atom:    9    charge:    3.9810    magn:    0.9525    constr:    0.0000
     atom:   10    charge:    3.9611    magn:    0.9614    constr:    0.0000
     atom:   11    charge:    3.9616    magn:    0.9634    constr:    0.0000
     atom:   12    charge:    3.9798    magn:    0.9568    constr:    0.0000
     atom:   13    charge:    3.9810    magn:    0.9525    constr:    0.0000
     atom:   14    charge:    3.9609    magn:    0.9611    constr:    0.0000
     atom:   15    charge:    3.9622    magn:    0.9610    constr:    0.0000
     atom:   16    charge:    3.9793    magn:    0.9595    constr:    0.0000
     atom:   17    charge:    3.9811    magn:    0.9523    constr:    0.0000
     atom:   18    charge:    3.9612    magn:    0.9614    constr:    0.0000
     atom:   19    charge:    3.9643    magn:    0.9627    constr:    0.0000
     atom:   20    charge:    3.9601    magn:    0.9348    constr:    0.0000
     atom:   21    charge:    3.9811    magn:    0.9524    constr:    0.0000
     atom:   22    charge:    3.9612    magn:    0.9613    constr:    0.0000
     atom:   23    charge:    3.9622    magn:    0.9610    constr:    0.0000
     atom:   24    charge:    3.9789    magn:    0.9596    constr:    0.0000
     atom:   25    charge:    3.9806    magn:    0.9529    constr:    0.0000
     atom:   26    charge:    3.9609    magn:    0.9611    constr:    0.0000
     atom:   27    charge:    3.9605    magn:    0.9622    constr:    0.0000
     atom:   28    charge:    3.9794    magn:    0.9594    constr:    0.0000
     atom:   29    charge:    3.9806    magn:    0.9531    constr:    0.0000
     atom:   30    charge:    3.9609    magn:    0.9609    constr:    0.0000
     atom:   31    charge:    3.9622    magn:    0.9605    constr:    0.0000
     atom:   32    charge:    3.9796    magn:    0.9568    constr:    0.0000
     atom:   33    charge:    3.9811    magn:    0.9524    constr:    0.0000
     atom:   34    charge:    3.9611    magn:    0.9614    constr:    0.0000
     atom:   35    charge:    3.9622    magn:    0.9609    constr:    0.0000
     atom:   36    charge:    3.9798    magn:    0.9569    constr:    0.0000
     atom:   37    charge:    0.6042    magn:    0.3555    constr:    0.0000

     total cpu time spent up to now is      440.5 secs

     total energy              =   -3633.56392830 Ry
     Harris-Foulkes estimate   =   -3633.32662792 Ry
     estimated scf accuracy    <       8.80860131 Ry

     total magnetization       =    38.42 Bohr mag/cell
     absolute magnetization    =    38.53 Bohr mag/cell

     iteration #  6     ecut=    44.10 Ry     beta=0.10
     Davidson diagonalization with overlap
     ethr =  2.42E-03,  avg # of iterations =  1.2

     negative rho (up, down):  2.997E-04 1.934E-04
 
     Adding external electric field

     Computed dipole along edir(3) : 
        Dipole               -0.2421 Ry au,         -0.6154 Debye
        Dipole field         -0.0004 Ry au
 
        Potential amp.        0.0337 Ry
        Total length         38.9923 bohr
 
 
     Adding external electric field

     Computed dipole along edir(3) : 
        Dipole               -0.2421 Ry au,         -0.6154 Debye
        Dipole field         -0.0004 Ry au
 
        Potential amp.        0.0337 Ry
        Total length         38.9923 bohr
 
 
     Magnetic moment per site:
     atom:    1    charge:    3.9777    magn:    0.9002    constr:    0.0000
     atom:    2    charge:    3.9624    magn:    0.9069    constr:    0.0000
     atom:    3    charge:    3.9625    magn:    0.9070    constr:    0.0000
     atom:    4    charge:    3.9695    magn:    0.8754    constr:    0.0000
     atom:    5    charge:    3.9784    magn:    0.8999    constr:    0.0000
     atom:    6    charge:    3.9616    magn:    0.9076    constr:    0.0000
     atom:    7    charge:    3.9628    magn:    0.9063    constr:    0.0000
     atom:    8    charge:    3.9677    magn:    0.8688    constr:    0.0000
     atom:    9    charge:    3.9778    magn:    0.9001    constr:    0.0000
     atom:   10    charge:    3.9625    magn:    0.9068    constr:    0.0000
     atom:   11    charge:    3.9640    magn:    0.9081    constr:    0.0000
     atom:   12    charge:    3.9768    magn:    0.9048    constr:    0.0000
     atom:   13    charge:    3.9777    magn:    0.9002    constr:    0.0000
     atom:   14    charge:    3.9618    magn:    0.9071    constr:    0.0000
     atom:   15    charge:    3.9624    magn:    0.9071    constr:    0.0000
     atom:   16    charge:    3.9759    magn:    0.9084    constr:    0.0000
     atom:   17    charge:    3.9783    magn:    0.8994    constr:    0.0000
     atom:   18    charge:    3.9616    magn:    0.9076    constr:    0.0000
     atom:   19    charge:    3.9632    magn:    0.9097    constr:    0.0000
     atom:   20    charge:    3.9670    magn:    0.8658    constr:    0.0000
     atom:   21    charge:    3.9784    magn:    0.8994    constr:    0.0000
     atom:   22    charge:    3.9617    magn:    0.9075    constr:    0.0000
     atom:   23    charge:    3.9627    magn:    0.9070    constr:    0.0000
     atom:   24    charge:    3.9761    magn:    0.9081    constr:    0.0000
     atom:   25    charge:    3.9785    magn:    0.8996    constr:    0.0000
     atom:   26    charge:    3.9618    magn:    0.9070    constr:    0.0000
     atom:   27    charge:    3.9609    magn:    0.9083    constr:    0.0000
     atom:   28    charge:    3.9758    magn:    0.9085    constr:    0.0000
     atom:   29    charge:    3.9784    magn:    0.8998    constr:    0.0000
     atom:   30    charge:    3.9619    magn:    0.9066    constr:    0.0000
     atom:   31    charge:    3.9629    magn:    0.9062    constr:    0.0000
     atom:   32    charge:    3.9771    magn:    0.9043    constr:    0.0000
     atom:   33    charge:    3.9784    magn:    0.8994    constr:    0.0000
     atom:   34    charge:    3.9625    magn:    0.9068    constr:    0.0000
     atom:   35    charge:    3.9628    magn:    0.9067    constr:    0.0000
     atom:   36    charge:    3.9769    magn:    0.9047    constr:    0.0000
     atom:   37    charge:    0.6075    magn:    0.3358    constr:    0.0000

     total cpu time spent up to now is      508.9 secs

     total energy              =   -3633.83598893 Ry
     Harris-Foulkes estimate   =   -3633.66540900 Ry
     estimated scf accuracy    <       3.35222320 Ry

     total magnetization       =    37.44 Bohr mag/cell
     absolute magnetization    =    37.80 Bohr mag/cell

     iteration #  7     ecut=    44.10 Ry     beta=0.10
     Davidson diagonalization with overlap
     ethr =  9.21E-04,  avg # of iterations =  3.0

     negative rho (up, down):  3.024E-04 2.042E-04
 
     Adding external electric field

     Computed dipole along edir(3) : 
        Dipole               -0.2212 Ry au,         -0.5623 Debye
        Dipole field         -0.0004 Ry au
 
        Potential amp.        0.0308 Ry
        Total length         38.9923 bohr
 
 
     Adding external electric field

     Computed dipole along edir(3) : 
        Dipole               -0.2212 Ry au,         -0.5623 Debye
        Dipole field         -0.0004 Ry au
 
        Potential amp.        0.0308 Ry
        Total length         38.9923 bohr
 
 
     Magnetic moment per site:
     atom:    1    charge:    3.9717    magn:    0.8062    constr:    0.0000
     atom:    2    charge:    3.9638    magn:    0.8108    constr:    0.0000
     atom:    3    charge:    3.9641    magn:    0.8097    constr:    0.0000
     atom:    4    charge:    3.9618    magn:    0.7654    constr:    0.0000
     atom:    5    charge:    3.9705    magn:    0.8074    constr:    0.0000
     atom:    6    charge:    3.9643    magn:    0.8101    constr:    0.0000
     atom:    7    charge:    3.9639    magn:    0.8091    constr:    0.0000
     atom:    8    charge:    3.9610    magn:    0.7540    constr:    0.0000
     atom:    9    charge:    3.9714    magn:    0.8065    constr:    0.0000
     atom:   10    charge:    3.9636    magn:    0.8109    constr:    0.0000
     atom:   11    charge:    3.9635    magn:    0.8123    constr:    0.0000
     atom:   12    charge:    3.9765    magn:    0.8071    constr:    0.0000
     atom:   13    charge:    3.9717    magn:    0.8062    constr:    0.0000
     atom:   14    charge:    3.9647    magn:    0.8095    constr:    0.0000
     atom:   15    charge:    3.9641    magn:    0.8099    constr:    0.0000
     atom:   16    charge:    3.9789    magn:    0.8088    constr:    0.0000
     atom:   17    charge:    3.9717    magn:    0.8055    constr:    0.0000
     atom:   18    charge:    3.9643    magn:    0.8100    constr:    0.0000
     atom:   19    charge:    3.9606    magn:    0.8160    constr:    0.0000
     atom:   20    charge:    3.9606    magn:    0.7490    constr:    0.0000
     atom:   21    charge:    3.9715    magn:    0.8056    constr:    0.0000
     atom:   22    charge:    3.9643    magn:    0.8100    constr:    0.0000
     atom:   23    charge:    3.9640    magn:    0.8099    constr:    0.0000
     atom:   24    charge:    3.9787    magn:    0.8088    constr:    0.0000
     atom:   25    charge:    3.9705    magn:    0.8070    constr:    0.0000
     atom:   26    charge:    3.9646    magn:    0.8094    constr:    0.0000
     atom:   27    charge:    3.9659    magn:    0.8081    constr:    0.0000
     atom:   28    charge:    3.9789    magn:    0.8088    constr:    0.0000
     atom:   29    charge:    3.9705    magn:    0.8073    constr:    0.0000
     atom:   30    charge:    3.9643    magn:    0.8093    constr:    0.0000
     atom:   31    charge:    3.9639    magn:    0.8091    constr:    0.0000
     atom:   32    charge:    3.9760    magn:    0.8071    constr:    0.0000
     atom:   33    charge:    3.9715    magn:    0.8056    constr:    0.0000
     atom:   34    charge:    3.9635    magn:    0.8110    constr:    0.0000
     atom:   35    charge:    3.9640    magn:    0.8097    constr:    0.0000
     atom:   36    charge:    3.9763    magn:    0.8071    constr:    0.0000
     atom:   37    charge:    0.6084    magn:    0.2962    constr:    0.0000

     total cpu time spent up to now is      585.2 secs

     total energy              =   -3634.15115426 Ry
     Harris-Foulkes estimate   =   -3633.86635800 Ry
     estimated scf accuracy    <       1.13536420 Ry

     total magnetization       =    35.94 Bohr mag/cell
     absolute magnetization    =    36.51 Bohr mag/cell

     iteration #  8     ecut=    44.10 Ry     beta=0.10
     Davidson diagonalization with overlap
     ethr =  3.12E-04,  avg # of iterations =  8.3

     negative rho (up, down):  3.236E-04 2.654E-04
 
     Adding external electric field

     Computed dipole along edir(3) : 
        Dipole               -0.0770 Ry au,         -0.1956 Debye
        Dipole field         -0.0001 Ry au
 
        Potential amp.        0.0107 Ry
        Total length         38.9923 bohr
 
 
     Adding external electric field

     Computed dipole along edir(3) : 
        Dipole               -0.0770 Ry au,         -0.1956 Debye
        Dipole field         -0.0001 Ry au
 
        Potential amp.        0.0107 Ry
        Total length         38.9923 bohr
 
 
     Magnetic moment per site:
     atom:    1    charge:    3.9678    magn:    0.6868    constr:    0.0000
     atom:    2    charge:    3.9652    magn:    0.6913    constr:    0.0000
     atom:    3    charge:    3.9657    magn:    0.6879    constr:    0.0000
     atom:    4    charge:    3.9626    magn:    0.6190    constr:    0.0000
     atom:    5    charge:    3.9671    magn:    0.6879    constr:    0.0000
     atom:    6    charge:    3.9665    magn:    0.6893    constr:    0.0000
     atom:    7    charge:    3.9658    magn:    0.6869    constr:    0.0000
     atom:    8    charge:    3.9595    magn:    0.6039    constr:    0.0000
     atom:    9    charge:    3.9681    magn:    0.6867    constr:    0.0000
     atom:   10    charge:    3.9656    magn:    0.6909    constr:    0.0000
     atom:   11    charge:    3.9647    magn:    0.6909    constr:    0.0000
     atom:   12    charge:    3.9752    magn:    0.6862    constr:    0.0000
     atom:   13    charge:    3.9677    magn:    0.6869    constr:    0.0000
     atom:   14    charge:    3.9640    magn:    0.6909    constr:    0.0000
     atom:   15    charge:    3.9656    magn:    0.6883    constr:    0.0000
     atom:   16    charge:    3.9730    magn:    0.6922    constr:    0.0000
     atom:   17    charge:    3.9678    magn:    0.6859    constr:    0.0000
     atom:   18    charge:    3.9664    magn:    0.6893    constr:    0.0000
     atom:   19    charge:    3.9754    magn:    0.6853    constr:    0.0000
     atom:   20    charge:    3.9583    magn:    0.5971    constr:    0.0000
     atom:   21    charge:    3.9681    magn:    0.6856    constr:    0.0000
     atom:   22    charge:    3.9665    magn:    0.6893    constr:    0.0000
     atom:   23    charge:    3.9657    magn:    0.6881    constr:    0.0000
     atom:   24    charge:    3.9730    magn:    0.6919    constr:    0.0000
     atom:   25    charge:    3.9671    magn:    0.6875    constr:    0.0000
     atom:   26    charge:    3.9642    magn:    0.6907    constr:    0.0000
     atom:   27    charge:    3.9588    magn:    0.6928    constr:    0.0000
     atom:   28    charge:    3.9730    magn:    0.6923    constr:    0.0000
     atom:   29    charge:    3.9671    magn:    0.6878    constr:    0.0000
     atom:   30    charge:    3.9645    magn:    0.6901    constr:    0.0000
     atom:   31    charge:    3.9658    magn:    0.6868    constr:    0.0000
     atom:   32    charge:    3.9753    magn:    0.6854    constr:    0.0000
     atom:   33    charge:    3.9682    magn:    0.6855    constr:    0.0000
     atom:   34    charge:    3.9657    magn:    0.6908    constr:    0.0000
     atom:   35    charge:    3.9657    magn:    0.6877    constr:    0.0000
     atom:   36    charge:    3.9752    magn:    0.6860    constr:    0.0000
     atom:   37    charge:    0.6077    magn:    0.2441    constr:    0.0000

     total cpu time spent up to now is      688.1 secs

     total energy              =   -3634.42560894 Ry
     Harris-Foulkes estimate   =   -3634.19521648 Ry
     estimated scf accuracy    <       3.06669786 Ry

     total magnetization       =    34.10 Bohr mag/cell
     absolute magnetization    =    35.15 Bohr mag/cell

     iteration #  9     ecut=    44.10 Ry     beta=0.10
     Davidson diagonalization with overlap
     ethr =  3.12E-04,  avg # of iterations =  1.0

     negative rho (up, down):  3.688E-04 3.698E-04
 
     Adding external electric field

     Computed dipole along edir(3) : 
        Dipole                0.0470 Ry au,          0.1195 Debye
        Dipole field          0.0001 Ry au
 
        Potential amp.       -0.0065 Ry
        Total length         38.9923 bohr
 
 
     Adding external electric field

     Computed dipole along edir(3) : 
        Dipole                0.0470 Ry au,          0.1195 Debye
        Dipole field          0.0001 Ry au
 
        Potential amp.       -0.0065 Ry
        Total length         38.9923 bohr
 
 
     Magnetic moment per site:
     atom:    1    charge:    3.9652    magn:    0.5585    constr:    0.0000
     atom:    2    charge:    3.9673    magn:    0.5628    constr:    0.0000
     atom:    3    charge:    3.9685    magn:    0.5565    constr:    0.0000
     atom:    4    charge:    3.9628    magn:    0.4604    constr:    0.0000
     atom:    5    charge:    3.9680    magn:    0.5570    constr:    0.0000
     atom:    6    charge:    3.9655    magn:    0.5625    constr:    0.0000
     atom:    7    charge:    3.9689    magn:    0.5550    constr:    0.0000
     atom:    8    charge:    3.9588    magn:    0.4404    constr:    0.0000
     atom:    9    charge:    3.9650    magn:    0.5587    constr:    0.0000
     atom:   10    charge:    3.9673    magn:    0.5628    constr:    0.0000
     atom:   11    charge:    3.9681    magn:    0.5595    constr:    0.0000
     atom:   12    charge:    3.9674    magn:    0.5613    constr:    0.0000
     atom:   13    charge:    3.9653    magn:    0.5584    constr:    0.0000
     atom:   14    charge:    3.9686    magn:    0.5601    constr:    0.0000
     atom:   15    charge:    3.9685    magn:    0.5568    constr:    0.0000
     atom:   16    charge:    3.9724    magn:    0.5624    constr:    0.0000
     atom:   17    charge:    3.9657    magn:    0.5570    constr:    0.0000
     atom:   18    charge:    3.9655    magn:    0.5625    constr:    0.0000
     atom:   19    charge:    3.9714    magn:    0.5595    constr:    0.0000
     atom:   20    charge:    3.9571    magn:    0.4316    constr:    0.0000
     atom:   21    charge:    3.9656    magn:    0.5569    constr:    0.0000
     atom:   22    charge:    3.9656    magn:    0.5626    constr:    0.0000
     atom:   23    charge:    3.9690    magn:    0.5562    constr:    0.0000
     atom:   24    charge:    3.9734    magn:    0.5613    constr:    0.0000
     atom:   25    charge:    3.9682    magn:    0.5564    constr:    0.0000
     atom:   26    charge:    3.9686    magn:    0.5599    constr:    0.0000
     atom:   27    charge:    3.9665    magn:    0.5588    constr:    0.0000
     atom:   28    charge:    3.9720    magn:    0.5628    constr:    0.0000
     atom:   29    charge:    3.9681    magn:    0.5569    constr:    0.0000
     atom:   30    charge:    3.9687    magn:    0.5595    constr:    0.0000
     atom:   31    charge:    3.9691    magn:    0.5547    constr:    0.0000
     atom:   32    charge:    3.9680    magn:    0.5599    constr:    0.0000
     atom:   33    charge:    3.9656    magn:    0.5569    constr:    0.0000
     atom:   34    charge:    3.9673    magn:    0.5627    constr:    0.0000
     atom:   35    charge:    3.9692    magn:    0.5556    constr:    0.0000
     atom:   36    charge:    3.9676    magn:    0.5609    constr:    0.0000
     atom:   37    charge:    0.6048    magn:    0.1852    constr:    0.0000

     total cpu time spent up to now is      755.6 secs

     total energy              =   -3634.61888918 Ry
     Harris-Foulkes estimate   =   -3634.48515770 Ry
     estimated scf accuracy    <       0.85648367 Ry

     total magnetization       =    30.69 Bohr mag/cell
     absolute magnetization    =    32.66 Bohr mag/cell

     iteration # 10     ecut=    44.10 Ry     beta=0.10
     Davidson diagonalization with overlap
     ethr =  2.35E-04,  avg # of iterations =  3.0

     negative rho (up, down):  3.798E-04 3.934E-04
 
     Adding external electric field

     Computed dipole along edir(3) : 
        Dipole               -0.0094 Ry au,         -0.0238 Debye
        Dipole field         -0.0000 Ry au
 
        Potential amp.        0.0013 Ry
        Total length         38.9923 bohr
 
 
     Adding external electric field

     Computed dipole along edir(3) : 
        Dipole               -0.0094 Ry au,         -0.0238 Debye
        Dipole field         -0.0000 Ry au
 
        Potential amp.        0.0013 Ry
        Total length         38.9923 bohr
 
 
     Magnetic moment per site:
     atom:    1    charge:    3.9656    magn:    0.5032    constr:    0.0000
     atom:    2    charge:    3.9693    magn:    0.5076    constr:    0.0000
     atom:    3    charge:    3.9694    magn:    0.5013    constr:    0.0000
     atom:    4    charge:    3.9610    magn:    0.3920    constr:    0.0000
     atom:    5    charge:    3.9643    magn:    0.5049    constr:    0.0000
     atom:    6    charge:    3.9692    magn:    0.5062    constr:    0.0000
     atom:    7    charge:    3.9696    magn:    0.4997    constr:    0.0000
     atom:    8    charge:    3.9582    magn:    0.3693    constr:    0.0000
     atom:    9    charge:    3.9657    magn:    0.5032    constr:    0.0000
     atom:   10    charge:    3.9692    magn:    0.5075    constr:    0.0000
     atom:   11    charge:    3.9709    magn:    0.5031    constr:    0.0000
     atom:   12    charge:    3.9679    magn:    0.5063    constr:    0.0000
     atom:   13    charge:    3.9655    magn:    0.5032    constr:    0.0000
     atom:   14    charge:    3.9689    magn:    0.5059    constr:    0.0000
     atom:   15    charge:    3.9693    magn:    0.5017    constr:    0.0000
     atom:   16    charge:    3.9708    magn:    0.5083    constr:    0.0000
     atom:   17    charge:    3.9673    magn:    0.5008    constr:    0.0000
     atom:   18    charge:    3.9691    magn:    0.5063    constr:    0.0000
     atom:   19    charge:    3.9709    magn:    0.5056    constr:    0.0000
     atom:   20    charge:    3.9570    magn:    0.3593    constr:    0.0000
     atom:   21    charge:    3.9673    magn:    0.5007    constr:    0.0000
     atom:   22    charge:    3.9691    magn:    0.5065    constr:    0.0000
     atom:   23    charge:    3.9695    magn:    0.5012    constr:    0.0000
     atom:   24    charge:    3.9714    magn:    0.5073    constr:    0.0000
     atom:   25    charge:    3.9642    magn:    0.5046    constr:    0.0000
     atom:   26    charge:    3.9689    magn:    0.5058    constr:    0.0000
     atom:   27    charge:    3.9701    magn:    0.5029    constr:    0.0000
     atom:   28    charge:    3.9706    magn:    0.5087    constr:    0.0000
     atom:   29    charge:    3.9643    magn:    0.5048    constr:    0.0000
     atom:   30    charge:    3.9689    magn:    0.5054    constr:    0.0000
     atom:   31    charge:    3.9696    magn:    0.4995    constr:    0.0000
     atom:   32    charge:    3.9684    magn:    0.5048    constr:    0.0000
     atom:   33    charge:    3.9673    magn:    0.5007    constr:    0.0000
     atom:   34    charge:    3.9691    magn:    0.5076    constr:    0.0000
     atom:   35    charge:    3.9695    magn:    0.5006    constr:    0.0000
     atom:   36    charge:    3.9681    magn:    0.5059    constr:    0.0000
     atom:   37    charge:    0.6012    magn:    0.1572    constr:    0.0000

     total cpu time spent up to now is      831.7 secs

     total energy              =   -3634.69382179 Ry
     Harris-Foulkes estimate   =   -3634.68038950 Ry
     estimated scf accuracy    <       2.59269908 Ry

     total magnetization       =    26.33 Bohr mag/cell
     absolute magnetization    =    29.60 Bohr mag/cell

     iteration # 11     ecut=    44.10 Ry     beta=0.10
     Davidson diagonalization with overlap
     ethr =  2.35E-04,  avg # of iterations =  1.1

     negative rho (up, down):  3.945E-04 4.242E-04
 
     Adding external electric field

     Computed dipole along edir(3) : 
        Dipole               -0.1185 Ry au,         -0.3013 Debye
        Dipole field         -0.0002 Ry au
 
        Potential amp.        0.0165 Ry
        Total length         38.9923 bohr
 
 
     Adding external electric field

     Computed dipole along edir(3) : 
        Dipole               -0.1185 Ry au,         -0.3013 Debye
        Dipole field         -0.0002 Ry au
 
        Potential amp.        0.0165 Ry
        Total length         38.9923 bohr
 
 
     Magnetic moment per site:
     atom:    1    charge:    3.9664    magn:    0.4401    constr:    0.0000
     atom:    2    charge:    3.9703    magn:    0.4452    constr:    0.0000
     atom:    3    charge:    3.9705    magn:    0.4380    constr:    0.0000
     atom:    4    charge:    3.9593    magn:    0.3113    constr:    0.0000
     atom:    5    charge:    3.9669    magn:    0.4412    constr:    0.0000
     atom:    6    charge:    3.9724    magn:    0.4426    constr:    0.0000
     atom:    7    charge:    3.9704    magn:    0.4365    constr:    0.0000
     atom:    8    charge:    3.9574    magn:    0.2855    constr:    0.0000
     atom:    9    charge:    3.9664    magn:    0.4401    constr:    0.0000
     atom:   10    charge:    3.9703    magn:    0.4451    constr:    0.0000
     atom:   11    charge:    3.9704    magn:    0.4411    constr:    0.0000
     atom:   12    charge:    3.9687    magn:    0.4434    constr:    0.0000
     atom:   13    charge:    3.9664    magn:    0.4401    constr:    0.0000
     atom:   14    charge:    3.9719    magn:    0.4421    constr:    0.0000
     atom:   15    charge:    3.9705    magn:    0.4384    constr:    0.0000
     atom:   16    charge:    3.9708    magn:    0.4449    constr:    0.0000
     atom:   17    charge:    3.9653    magn:    0.4395    constr:    0.0000
     atom:   18    charge:    3.9724    magn:    0.4427    constr:    0.0000
     atom:   19    charge:    3.9739    magn:    0.4416    constr:    0.0000
     atom:   20    charge:    3.9566    magn:    0.2743    constr:    0.0000
     atom:   21    charge:    3.9654    magn:    0.4394    constr:    0.0000
     atom:   22    charge:    3.9724    magn:    0.4430    constr:    0.0000
     atom:   23    charge:    3.9704    magn:    0.4378    constr:    0.0000
     atom:   24    charge:    3.9711    magn:    0.4440    constr:    0.0000
     atom:   25    charge:    3.9669    magn:    0.4407    constr:    0.0000
     atom:   26    charge:    3.9719    magn:    0.4420    constr:    0.0000
     atom:   27    charge:    3.9723    magn:    0.4407    constr:    0.0000
     atom:   28    charge:    3.9707    magn:    0.4454    constr:    0.0000
     atom:   29    charge:    3.9669    magn:    0.4411    constr:    0.0000
     atom:   30    charge:    3.9718    magn:    0.4418    constr:    0.0000
     atom:   31    charge:    3.9704    magn:    0.4362    constr:    0.0000
     atom:   32    charge:    3.9684    magn:    0.4421    constr:    0.0000
     atom:   33    charge:    3.9654    magn:    0.4393    constr:    0.0000
     atom:   34    charge:    3.9703    magn:    0.4451    constr:    0.0000
     atom:   35    charge:    3.9704    magn:    0.4372    constr:    0.0000
     atom:   36    charge:    3.9687    magn:    0.4431    constr:    0.0000
     atom:   37    charge:    0.5954    magn:    0.1221    constr:    0.0000

     total cpu time spent up to now is      899.9 secs

     total energy              =   -3634.71348560 Ry
     Harris-Foulkes estimate   =   -3634.71229524 Ry
     estimated scf accuracy    <       0.60436044 Ry

     total magnetization       =    24.25 Bohr mag/cell
     absolute magnetization    =    28.12 Bohr mag/cell

     iteration # 12     ecut=    44.10 Ry     beta=0.10
     Davidson diagonalization with overlap
     ethr =  1.66E-04,  avg # of iterations =  2.8

     negative rho (up, down):  3.950E-04 4.280E-04
 
     Adding external electric field

     Computed dipole along edir(3) : 
        Dipole               -0.1667 Ry au,         -0.4238 Debye
        Dipole field         -0.0003 Ry au
 
        Potential amp.        0.0232 Ry
        Total length         38.9923 bohr
 
 
     Adding external electric field

     Computed dipole along edir(3) : 
        Dipole               -0.1667 Ry au,         -0.4238 Debye
        Dipole field         -0.0003 Ry au
 
        Potential amp.        0.0232 Ry
        Total length         38.9923 bohr
 
 
     Magnetic moment per site:
     atom:    1    charge:    3.9684    magn:    0.3988    constr:    0.0000
     atom:    2    charge:    3.9728    magn:    0.4036    constr:    0.0000
     atom:    3    charge:    3.9715    magn:    0.3964    constr:    0.0000
     atom:    4    charge:    3.9599    magn:    0.2554    constr:    0.0000
     atom:    5    charge:    3.9679    magn:    0.4012    constr:    0.0000
     atom:    6    charge:    3.9723    magn:    0.4026    constr:    0.0000
     atom:    7    charge:    3.9714    magn:    0.3947    constr:    0.0000
     atom:    8    charge:    3.9576    magn:    0.2280    constr:    0.0000
     atom:    9    charge:    3.9683    magn:    0.3989    constr:    0.0000
     atom:   10    charge:    3.9728    magn:    0.4035    constr:    0.0000
     atom:   11    charge:    3.9709    magn:    0.4003    constr:    0.0000
     atom:   12    charge:    3.9674    magn:    0.4033    constr:    0.0000
     atom:   13    charge:    3.9684    magn:    0.3988    constr:    0.0000
     atom:   14    charge:    3.9725    magn:    0.4016    constr:    0.0000
     atom:   15    charge:    3.9715    magn:    0.3967    constr:    0.0000
     atom:   16    charge:    3.9722    magn:    0.4023    constr:    0.0000
     atom:   17    charge:    3.9676    magn:    0.3982    constr:    0.0000
     atom:   18    charge:    3.9723    magn:    0.4027    constr:    0.0000
     atom:   19    charge:    3.9751    magn:    0.3997    constr:    0.0000
     atom:   20    charge:    3.9567    magn:    0.2162    constr:    0.0000
     atom:   21    charge:    3.9675    magn:    0.3982    constr:    0.0000
     atom:   22    charge:    3.9723    magn:    0.4032    constr:    0.0000
     atom:   23    charge:    3.9714    magn:    0.3960    constr:    0.0000
     atom:   24    charge:    3.9727    magn:    0.4010    constr:    0.0000
     atom:   25    charge:    3.9679    magn:    0.4008    constr:    0.0000
     atom:   26    charge:    3.9725    magn:    0.4015    constr:    0.0000
     atom:   27    charge:    3.9709    magn:    0.4024    constr:    0.0000
     atom:   28    charge:    3.9720    magn:    0.4028    constr:    0.0000
     atom:   29    charge:    3.9679    magn:    0.4011    constr:    0.0000
     atom:   30    charge:    3.9726    magn:    0.4013    constr:    0.0000
     atom:   31    charge:    3.9714    magn:    0.3944    constr:    0.0000
     atom:   32    charge:    3.9674    magn:    0.4017    constr:    0.0000
     atom:   33    charge:    3.9675    magn:    0.3981    constr:    0.0000
     atom:   34    charge:    3.9728    magn:    0.4035    constr:    0.0000
     atom:   35    charge:    3.9714    magn:    0.3954    constr:    0.0000
     atom:   36    charge:    3.9674    magn:    0.4028    constr:    0.0000
     atom:   37    charge:    0.5906    magn:    0.0963    constr:    0.0000

     total cpu time spent up to now is      974.5 secs

     total energy              =   -3634.72907818 Ry
     Harris-Foulkes estimate   =   -3634.73400851 Ry
     estimated scf accuracy    <       0.51691224 Ry

     total magnetization       =    21.88 Bohr mag/cell
     absolute magnetization    =    26.42 Bohr mag/cell

     iteration # 13     ecut=    44.10 Ry     beta=0.10
     Davidson diagonalization with overlap
     ethr =  1.42E-04,  avg # of iterations =  1.1

     negative rho (up, down):  3.791E-04 4.017E-04
 
     Adding external electric field

     Computed dipole along edir(3) : 
        Dipole               -0.1598 Ry au,         -0.4061 Debye
        Dipole field         -0.0003 Ry au
 
        Potential amp.        0.0222 Ry
        Total length         38.9923 bohr
 
 
     Adding external electric field

     Computed dipole along edir(3) : 
        Dipole               -0.1598 Ry au,         -0.4061 Debye
        Dipole field         -0.0003 Ry au
 
        Potential amp.        0.0222 Ry
        Total length         38.9923 bohr
 
 
     Magnetic moment per site:
     atom:    1    charge:    3.9699    magn:    0.3864    constr:    0.0000
     atom:    2    charge:    3.9722    magn:    0.3918    constr:    0.0000
     atom:    3    charge:    3.9715    magn:    0.3835    constr:    0.0000
     atom:    4    charge:    3.9612    magn:    0.2346    constr:    0.0000
     atom:    5    charge:    3.9703    magn:    0.3888    constr:    0.0000
     atom:    6    charge:    3.9722    magn:    0.3907    constr:    0.0000
     atom:    7    charge:    3.9715    magn:    0.3817    constr:    0.0000
     atom:    8    charge:    3.9587    magn:    0.2068    constr:    0.0000
     atom:    9    charge:    3.9699    magn:    0.3865    constr:    0.0000
     atom:   10    charge:    3.9721    magn:    0.3918    constr:    0.0000
     atom:   11    charge:    3.9718    magn:    0.3876    constr:    0.0000
     atom:   12    charge:    3.9689    magn:    0.3896    constr:    0.0000
     atom:   13    charge:    3.9699    magn:    0.3864    constr:    0.0000
     atom:   14    charge:    3.9729    magn:    0.3892    constr:    0.0000
     atom:   15    charge:    3.9715    magn:    0.3838    constr:    0.0000
     atom:   16    charge:    3.9714    magn:    0.3894    constr:    0.0000
     atom:   17    charge:    3.9700    magn:    0.3855    constr:    0.0000
     atom:   18    charge:    3.9722    magn:    0.3908    constr:    0.0000
     atom:   19    charge:    3.9739    magn:    0.3872    constr:    0.0000
     atom:   20    charge:    3.9577    magn:    0.1948    constr:    0.0000
     atom:   21    charge:    3.9700    magn:    0.3854    constr:    0.0000
     atom:   22    charge:    3.9722    magn:    0.3913    constr:    0.0000
     atom:   23    charge:    3.9715    magn:    0.3830    constr:    0.0000
     atom:   24    charge:    3.9719    magn:    0.3880    constr:    0.0000
     atom:   25    charge:    3.9703    magn:    0.3883    constr:    0.0000
     atom:   26    charge:    3.9729    magn:    0.3892    constr:    0.0000
     atom:   27    charge:    3.9718    magn:    0.3906    constr:    0.0000
     atom:   28    charge:    3.9713    magn:    0.3899    constr:    0.0000
     atom:   29    charge:    3.9703    magn:    0.3887    constr:    0.0000
     atom:   30    charge:    3.9729    magn:    0.3891    constr:    0.0000
     atom:   31    charge:    3.9715    magn:    0.3814    constr:    0.0000
     atom:   32    charge:    3.9689    magn:    0.3878    constr:    0.0000
     atom:   33    charge:    3.9700    magn:    0.3854    constr:    0.0000
     atom:   34    charge:    3.9721    magn:    0.3917    constr:    0.0000
     atom:   35    charge:    3.9715    magn:    0.3823    constr:    0.0000
     atom:   36    charge:    3.9689    magn:    0.3891    constr:    0.0000
     atom:   37    charge:    0.5880    magn:    0.0848    constr:    0.0000

     total cpu time spent up to now is     1042.5 secs

     total energy              =   -3634.72570921 Ry
     Harris-Foulkes estimate   =   -3634.73468077 Ry
     estimated scf accuracy    <       0.64694410 Ry

     total magnetization       =    20.63 Bohr mag/cell
     absolute magnetization    =    25.48 Bohr mag/cell

     iteration # 14     ecut=    44.10 Ry     beta=0.10
     Davidson diagonalization with overlap
     ethr =  1.42E-04,  avg # of iterations =  1.0

     negative rho (up, down):  3.586E-04 3.660E-04
 
     Adding external electric field

     Computed dipole along edir(3) : 
        Dipole               -0.1560 Ry au,         -0.3966 Debye
        Dipole field         -0.0003 Ry au
 
        Potential amp.        0.0217 Ry
        Total length         38.9923 bohr
 
 
     Adding external electric field

     Computed dipole along edir(3) : 
        Dipole               -0.1560 Ry au,         -0.3966 Debye
        Dipole field         -0.0003 Ry au
 
        Potential amp.        0.0217 Ry
        Total length         38.9923 bohr
 
 
     Magnetic moment per site:
     atom:    1    charge:    3.9711    magn:    0.3866    constr:    0.0000
     atom:    2    charge:    3.9720    magn:    0.3923    constr:    0.0000
     atom:    3    charge:    3.9713    magn:    0.3833    constr:    0.0000
     atom:    4    charge:    3.9622    magn:    0.2297    constr:    0.0000
     atom:    5    charge:    3.9708    magn:    0.3898    constr:    0.0000
     atom:    6    charge:    3.9724    magn:    0.3911    constr:    0.0000
     atom:    7    charge:    3.9713    magn:    0.3816    constr:    0.0000
     atom:    8    charge:    3.9600    magn:    0.2020    constr:    0.0000
     atom:    9    charge:    3.9711    magn:    0.3866    constr:    0.0000
     atom:   10    charge:    3.9719    magn:    0.3922    constr:    0.0000
     atom:   11    charge:    3.9716    magn:    0.3882    constr:    0.0000
     atom:   12    charge:    3.9690    magn:    0.3891    constr:    0.0000
     atom:   13    charge:    3.9711    magn:    0.3866    constr:    0.0000
     atom:   14    charge:    3.9720    magn:    0.3901    constr:    0.0000
     atom:   15    charge:    3.9712    magn:    0.3837    constr:    0.0000
     atom:   16    charge:    3.9723    magn:    0.3882    constr:    0.0000
     atom:   17    charge:    3.9702    magn:    0.3864    constr:    0.0000
     atom:   18    charge:    3.9724    magn:    0.3913    constr:    0.0000
     atom:   19    charge:    3.9738    magn:    0.3865    constr:    0.0000
     atom:   20    charge:    3.9591    magn:    0.1900    constr:    0.0000
     atom:   21    charge:    3.9702    magn:    0.3863    constr:    0.0000
     atom:   22    charge:    3.9723    magn:    0.3918    constr:    0.0000
     atom:   23    charge:    3.9712    magn:    0.3828    constr:    0.0000
     atom:   24    charge:    3.9726    magn:    0.3869    constr:    0.0000
     atom:   25    charge:    3.9708    magn:    0.3893    constr:    0.0000
     atom:   26    charge:    3.9720    magn:    0.3901    constr:    0.0000
     atom:   27    charge:    3.9721    magn:    0.3915    constr:    0.0000
     atom:   28    charge:    3.9721    magn:    0.3887    constr:    0.0000
     atom:   29    charge:    3.9708    magn:    0.3897    constr:    0.0000
     atom:   30    charge:    3.9721    magn:    0.3900    constr:    0.0000
     atom:   31    charge:    3.9713    magn:    0.3812    constr:    0.0000
     atom:   32    charge:    3.9691    magn:    0.3872    constr:    0.0000
     atom:   33    charge:    3.9702    magn:    0.3863    constr:    0.0000
     atom:   34    charge:    3.9719    magn:    0.3921    constr:    0.0000
     atom:   35    charge:    3.9712    magn:    0.3821    constr:    0.0000
     atom:   36    charge:    3.9691    magn:    0.3886    constr:    0.0000
     atom:   37    charge:    0.5867    magn:    0.0795    constr:    0.0000

     total cpu time spent up to now is     1110.5 secs

     total energy              =   -3634.72967673 Ry
     Harris-Foulkes estimate   =   -3634.72998977 Ry
     estimated scf accuracy    <       0.02985015 Ry

     total magnetization       =    20.38 Bohr mag/cell
     absolute magnetization    =    25.23 Bohr mag/cell

     iteration # 15     ecut=    44.10 Ry     beta=0.10
     Davidson diagonalization with overlap
     ethr =  8.20E-06,  avg # of iterations =  5.4

     negative rho (up, down):  3.389E-04 3.303E-04
 
     Adding external electric field

     Computed dipole along edir(3) : 
        Dipole               -0.1531 Ry au,         -0.3891 Debye
        Dipole field         -0.0003 Ry au
 
        Potential amp.        0.0213 Ry
        Total length         38.9923 bohr
 
 
     Adding external electric field

     Computed dipole along edir(3) : 
        Dipole               -0.1531 Ry au,         -0.3891 Debye
        Dipole field         -0.0003 Ry au
 
        Potential amp.        0.0213 Ry
        Total length         38.9923 bohr
 
 
     Magnetic moment per site:
     atom:    1    charge:    3.9706    magn:    0.3918    constr:    0.0000
     atom:    2    charge:    3.9715    magn:    0.3970    constr:    0.0000
     atom:    3    charge:    3.9710    magn:    0.3870    constr:    0.0000
     atom:    4    charge:    3.9628    magn:    0.2289    constr:    0.0000
     atom:    5    charge:    3.9710    magn:    0.3951    constr:    0.0000
     atom:    6    charge:    3.9708    magn:    0.3966    constr:    0.0000
     atom:    7    charge:    3.9710    magn:    0.3853    constr:    0.0000
     atom:    8    charge:    3.9607    magn:    0.2014    constr:    0.0000
     atom:    9    charge:    3.9705    magn:    0.3919    constr:    0.0000
     atom:   10    charge:    3.9714    magn:    0.3969    constr:    0.0000
     atom:   11    charge:    3.9718    magn:    0.3924    constr:    0.0000
     atom:   12    charge:    3.9706    magn:    0.3916    constr:    0.0000
     atom:   13    charge:    3.9706    magn:    0.3918    constr:    0.0000
     atom:   14    charge:    3.9713    magn:    0.3950    constr:    0.0000
     atom:   15    charge:    3.9710    magn:    0.3873    constr:    0.0000
     atom:   16    charge:    3.9728    magn:    0.3912    constr:    0.0000
     atom:   17    charge:    3.9707    magn:    0.3912    constr:    0.0000
     atom:   18    charge:    3.9708    magn:    0.3968    constr:    0.0000
     atom:   19    charge:    3.9724    magn:    0.3902    constr:    0.0000
     atom:   20    charge:    3.9598    magn:    0.1896    constr:    0.0000
     atom:   21    charge:    3.9706    magn:    0.3912    constr:    0.0000
     atom:   22    charge:    3.9708    magn:    0.3973    constr:    0.0000
     atom:   23    charge:    3.9710    magn:    0.3864    constr:    0.0000
     atom:   24    charge:    3.9732    magn:    0.3898    constr:    0.0000
     atom:   25    charge:    3.9710    magn:    0.3945    constr:    0.0000
     atom:   26    charge:    3.9713    magn:    0.3950    constr:    0.0000
     atom:   27    charge:    3.9707    magn:    0.3976    constr:    0.0000
     atom:   28    charge:    3.9726    magn:    0.3918    constr:    0.0000
     atom:   29    charge:    3.9710    magn:    0.3949    constr:    0.0000
     atom:   30    charge:    3.9714    magn:    0.3950    constr:    0.0000
     atom:   31    charge:    3.9710    magn:    0.3849    constr:    0.0000
     atom:   32    charge:    3.9706    magn:    0.3897    constr:    0.0000
     atom:   33    charge:    3.9706    magn:    0.3912    constr:    0.0000
     atom:   34    charge:    3.9714    magn:    0.3968    constr:    0.0000
     atom:   35    charge:    3.9710    magn:    0.3857    constr:    0.0000
     atom:   36    charge:    3.9706    magn:    0.3911    constr:    0.0000
     atom:   37    charge:    0.5858    magn:    0.0747    constr:    0.0000

     total cpu time spent up to now is     1198.6 secs

     total energy              =   -3634.73176920 Ry
     Harris-Foulkes estimate   =   -3634.73079919 Ry
     estimated scf accuracy    <       0.04118740 Ry

     total magnetization       =    20.45 Bohr mag/cell
     absolute magnetization    =    25.19 Bohr mag/cell

     iteration # 16     ecut=    44.10 Ry     beta=0.10
     Davidson diagonalization with overlap
     ethr =  8.20E-06,  avg # of iterations =  1.5

     negative rho (up, down):  3.237E-04 3.015E-04
 
     Adding external electric field

     Computed dipole along edir(3) : 
        Dipole               -0.1498 Ry au,         -0.3808 Debye
        Dipole field         -0.0003 Ry au
 
        Potential amp.        0.0208 Ry
        Total length         38.9923 bohr
 
 
     Adding external electric field

     Computed dipole along edir(3) : 
        Dipole               -0.1498 Ry au,         -0.3808 Debye
        Dipole field         -0.0003 Ry au
 
        Potential amp.        0.0208 Ry
        Total length         38.9923 bohr
 
 
     Magnetic moment per site:
     atom:    1    charge:    3.9711    magn:    0.3957    constr:    0.0000
     atom:    2    charge:    3.9698    magn:    0.4017    constr:    0.0000
     atom:    3    charge:    3.9704    magn:    0.3902    constr:    0.0000
     atom:    4    charge:    3.9636    magn:    0.2276    constr:    0.0000
     atom:    5    charge:    3.9711    magn:    0.3995    constr:    0.0000
     atom:    6    charge:    3.9700    magn:    0.4009    constr:    0.0000
     atom:    7    charge:    3.9704    magn:    0.3883    constr:    0.0000
     atom:    8    charge:    3.9617    magn:    0.2003    constr:    0.0000
     atom:    9    charge:    3.9712    magn:    0.3957    constr:    0.0000
     atom:   10    charge:    3.9698    magn:    0.4015    constr:    0.0000
     atom:   11    charge:    3.9706    magn:    0.3967    constr:    0.0000
     atom:   12    charge:    3.9716    magn:    0.3937    constr:    0.0000
     atom:   13    charge:    3.9711    magn:    0.3957    constr:    0.0000
     atom:   14    charge:    3.9699    magn:    0.3997    constr:    0.0000
     atom:   15    charge:    3.9704    magn:    0.3905    constr:    0.0000
     atom:   16    charge:    3.9739    magn:    0.3932    constr:    0.0000
     atom:   17    charge:    3.9710    magn:    0.3952    constr:    0.0000
     atom:   18    charge:    3.9700    magn:    0.4011    constr:    0.0000
     atom:   19    charge:    3.9719    magn:    0.3927    constr:    0.0000
     atom:   20    charge:    3.9609    magn:    0.1888    constr:    0.0000
     atom:   21    charge:    3.9711    magn:    0.3952    constr:    0.0000
     atom:   22    charge:    3.9700    magn:    0.4017    constr:    0.0000
     atom:   23    charge:    3.9703    magn:    0.3895    constr:    0.0000
     atom:   24    charge:    3.9741    magn:    0.3919    constr:    0.0000
     atom:   25    charge:    3.9710    magn:    0.3989    constr:    0.0000
     atom:   26    charge:    3.9699    magn:    0.3997    constr:    0.0000
     atom:   27    charge:    3.9708    magn:    0.4019    constr:    0.0000
     atom:   28    charge:    3.9738    magn:    0.3937    constr:    0.0000
     atom:   29    charge:    3.9711    magn:    0.3993    constr:    0.0000
     atom:   30    charge:    3.9700    magn:    0.3997    constr:    0.0000
     atom:   31    charge:    3.9704    magn:    0.3879    constr:    0.0000
     atom:   32    charge:    3.9717    magn:    0.3917    constr:    0.0000
     atom:   33    charge:    3.9711    magn:    0.3952    constr:    0.0000
     atom:   34    charge:    3.9698    magn:    0.4015    constr:    0.0000
     atom:   35    charge:    3.9703    magn:    0.3888    constr:    0.0000
     atom:   36    charge:    3.9717    magn:    0.3931    constr:    0.0000
     atom:   37    charge:    0.5856    magn:    0.0702    constr:    0.0000

     total cpu time spent up to now is     1267.7 secs

     total energy              =   -3634.73319944 Ry
     Harris-Foulkes estimate   =   -3634.73276315 Ry
     estimated scf accuracy    <       0.02674400 Ry

     total magnetization       =    20.61 Bohr mag/cell
     absolute magnetization    =    25.18 Bohr mag/cell

     iteration # 17     ecut=    44.10 Ry     beta=0.10
     Davidson diagonalization with overlap
     ethr =  7.35E-06,  avg # of iterations =  3.3

     negative rho (up, down):  3.176E-04 2.907E-04
 
     Adding external electric field

     Computed dipole along edir(3) : 
        Dipole               -0.1676 Ry au,         -0.4261 Debye
        Dipole field         -0.0003 Ry au
 
        Potential amp.        0.0233 Ry
        Total length         38.9923 bohr
 
 
     Adding external electric field

     Computed dipole along edir(3) : 
        Dipole               -0.1676 Ry au,         -0.4261 Debye
        Dipole field         -0.0003 Ry au
 
        Potential amp.        0.0233 Ry
        Total length         38.9923 bohr
 
 
     Magnetic moment per site:
     atom:    1    charge:    3.9716    magn:    0.3875    constr:    0.0000
     atom:    2    charge:    3.9707    magn:    0.3934    constr:    0.0000
     atom:    3    charge:    3.9698    magn:    0.3823    constr:    0.0000
     atom:    4    charge:    3.9641    magn:    0.2156    constr:    0.0000
     atom:    5    charge:    3.9714    magn:    0.3917    constr:    0.0000
     atom:    6    charge:    3.9706    magn:    0.3929    constr:    0.0000
     atom:    7    charge:    3.9698    magn:    0.3805    constr:    0.0000
     atom:    8    charge:    3.9620    magn:    0.1881    constr:    0.0000
     atom:    9    charge:    3.9716    magn:    0.3876    constr:    0.0000
     atom:   10    charge:    3.9707    magn:    0.3933    constr:    0.0000
     atom:   11    charge:    3.9705    magn:    0.3889    constr:    0.0000
     atom:   12    charge:    3.9717    magn:    0.3852    constr:    0.0000
     atom:   13    charge:    3.9716    magn:    0.3875    constr:    0.0000
     atom:   14    charge:    3.9707    magn:    0.3915    constr:    0.0000
     atom:   15    charge:    3.9698    magn:    0.3826    constr:    0.0000
     atom:   16    charge:    3.9738    magn:    0.3848    constr:    0.0000
     atom:   17    charge:    3.9711    magn:    0.3873    constr:    0.0000
     atom:   18    charge:    3.9705    magn:    0.3932    constr:    0.0000
     atom:   19    charge:    3.9713    magn:    0.3849    constr:    0.0000
     atom:   20    charge:    3.9611    magn:    0.1764    constr:    0.0000
     atom:   21    charge:    3.9711    magn:    0.3874    constr:    0.0000
     atom:   22    charge:    3.9706    magn:    0.3937    constr:    0.0000
     atom:   23    charge:    3.9698    magn:    0.3816    constr:    0.0000
     atom:   24    charge:    3.9741    magn:    0.3834    constr:    0.0000
     atom:   25    charge:    3.9714    magn:    0.3910    constr:    0.0000
     atom:   26    charge:    3.9707    magn:    0.3915    constr:    0.0000
     atom:   27    charge:    3.9702    magn:    0.3947    constr:    0.0000
     atom:   28    charge:    3.9736    magn:    0.3854    constr:    0.0000
     atom:   29    charge:    3.9714    magn:    0.3915    constr:    0.0000
     atom:   30    charge:    3.9707    magn:    0.3916    constr:    0.0000
     atom:   31    charge:    3.9698    magn:    0.3800    constr:    0.0000
     atom:   32    charge:    3.9717    magn:    0.3832    constr:    0.0000
     atom:   33    charge:    3.9711    magn:    0.3874    constr:    0.0000
     atom:   34    charge:    3.9707    magn:    0.3932    constr:    0.0000
     atom:   35    charge:    3.9698    magn:    0.3809    constr:    0.0000
     atom:   36    charge:    3.9717    magn:    0.3846    constr:    0.0000
     atom:   37    charge:    0.5849    magn:    0.0646    constr:    0.0000

     total cpu time spent up to now is     1344.2 secs

     total energy              =   -3634.73344451 Ry
     Harris-Foulkes estimate   =   -3634.73406528 Ry
     estimated scf accuracy    <       0.01260252 Ry

     total magnetization       =    20.72 Bohr mag/cell
     absolute magnetization    =    25.13 Bohr mag/cell

     iteration # 18     ecut=    44.10 Ry     beta=0.10
     Davidson diagonalization with overlap
     ethr =  3.46E-06,  avg # of iterations =  5.7

     negative rho (up, down):  3.106E-04 2.780E-04
 
     Adding external electric field

     Computed dipole along edir(3) : 
        Dipole               -0.1596 Ry au,         -0.4056 Debye
        Dipole field         -0.0003 Ry au
 
        Potential amp.        0.0222 Ry
        Total length         38.9923 bohr
 
 
     Adding external electric field

     Computed dipole along edir(3) : 
        Dipole               -0.1596 Ry au,         -0.4056 Debye
        Dipole field         -0.0003 Ry au
 
        Potential amp.        0.0222 Ry
        Total length         38.9923 bohr
 
 
     Magnetic moment per site:
     atom:    1    charge:    3.9716    magn:    0.3820    constr:    0.0000
     atom:    2    charge:    3.9700    magn:    0.3882    constr:    0.0000
     atom:    3    charge:    3.9699    magn:    0.3757    constr:    0.0000
     atom:    4    charge:    3.9637    magn:    0.2032    constr:    0.0000
     atom:    5    charge:    3.9716    magn:    0.3864    constr:    0.0000
     atom:    6    charge:    3.9701    magn:    0.3877    constr:    0.0000
     atom:    7    charge:    3.9699    magn:    0.3738    constr:    0.0000
     atom:    8    charge:    3.9617    magn:    0.1755    constr:    0.0000
     atom:    9    charge:    3.9717    magn:    0.3821    constr:    0.0000
     atom:   10    charge:    3.9700    magn:    0.3880    constr:    0.0000
     atom:   11    charge:    3.9701    magn:    0.3833    constr:    0.0000
     atom:   12    charge:    3.9723    magn:    0.3777    constr:    0.0000
     atom:   13    charge:    3.9716    magn:    0.3820    constr:    0.0000
     atom:   14    charge:    3.9701    magn:    0.3863    constr:    0.0000
     atom:   15    charge:    3.9699    magn:    0.3760    constr:    0.0000
     atom:   16    charge:    3.9743    magn:    0.3773    constr:    0.0000
     atom:   17    charge:    3.9714    magn:    0.3817    constr:    0.0000
     atom:   18    charge:    3.9701    magn:    0.3880    constr:    0.0000
[...]
    10.5824  10.7379  10.7725  10.8573  10.8887  11.0775  11.1382  11.2349
    11.2517  11.3624  11.5328  11.6303  11.6652  11.7628  11.8470  11.8981
    11.9421  12.0899  12.1788  12.2528  12.2917  12.5164  12.6173  12.7178
    12.8245  13.0440  13.0909  13.1407  13.1432  13.1751  13.2729  13.4242
    13.4775  13.5244

 ------ SPIN DOWN ----------


          k = 0.0000 0.0000 0.0000 ( 34645 PWs)   bands (ev):

    -9.0049  -6.2165  -4.8197  -3.2386  -3.2357  -3.1809  -3.1377  -3.1186
    -3.1183  -3.0201  -2.6463  -2.6450  -2.3259  -2.3009  -2.3003  -2.2539
    -2.1639  -1.8795  -1.8781  -1.6379  -1.4709  -1.4699  -1.4599  -1.2381
    -1.1822  -1.1807  -0.9260  -0.9247  -0.9217  -0.9088  -0.9053  -0.8894
    -0.8307  -0.8283  -0.8005  -0.7651  -0.7649  -0.7573  -0.7223  -0.7214
    -0.7147  -0.7140  -0.6884  -0.6688  -0.6670  -0.6247  -0.6235  -0.4758
    -0.4464  -0.4458  -0.3761  -0.3742  -0.3691  -0.3677  -0.3365  -0.2521
    -0.2512  -0.0954  -0.0177  -0.0162   0.0194   0.0206   0.0251   0.0542
     0.0630   0.1986   0.1991   0.2076   0.2327   0.2330   0.2965   0.2986
     0.3112   0.3738   0.4067   0.4394   0.4426   0.4445   0.5557   0.5559
     0.5748   0.5772   0.5808   0.5811   0.6180   0.6198   0.6276   0.6625
     0.6632   0.6663   0.6691   0.6700   0.7240   0.7242   0.7334   0.7343
     0.7572   0.7581   0.7652   0.7859   0.7863   0.7995   0.8123   0.8221
     0.8230   0.8316   0.8445   0.8454   0.8935   0.8935   0.9432   0.9611
     0.9613   1.0310   1.0314   1.0325   1.1242   1.1249   1.1297   1.1592
     1.1673   1.1675   1.2106   1.2828   1.2832   1.3048   1.3802   1.3803
     1.4023   1.4032   1.5313   1.5323   1.5501   1.5815   1.6125   1.6142
     1.6153   1.6675   1.6678   1.6832   1.7152   1.7154   1.7426   1.7450
     1.7453   1.7785   1.8009   1.8017   1.8686   1.8780   1.8786   1.9128
     1.9130   1.9386   1.9515   1.9523   1.9645   1.9710   1.9716   1.9755
     1.9925   1.9926   1.9934   2.0031   2.0036   2.0066   2.0587   2.0588
     2.0738   2.0739   2.0850   2.0886   2.0888   2.1059   2.1106   2.1110
     2.1320   2.1570   2.1573   2.1596   2.1596   2.1621   2.1847   2.2039
     2.2041   2.2260   2.2386   2.2467   2.2469   2.2967   2.2980   2.3508
     2.3667   2.3671   2.3754   2.3761   2.3947   2.8206   2.8225   2.8236
     3.1317   3.1716   3.1717   3.6897   4.1870   4.1920   5.1561   5.3596
     5.3603   5.3778   5.9950   5.9960   6.6418   6.8079   7.0790   7.0791
     7.1258   7.3148   7.3378   7.3724   7.3752   7.7078   7.7171   7.7188
     7.9550   8.0069   8.0074   8.0361   8.2046   8.2087   8.2392   9.0562
     9.1123   9.1165   9.7342   9.7351   9.7545   9.8050   9.8053   9.8257
     9.8765  10.0647  10.1697  10.1781  10.2206  10.2220  10.2240  10.2363
    10.2365  10.3263  10.8331  10.9685  11.0063  11.0069  11.0438  11.0457
    11.0735  11.1804  11.3508  11.4594  11.4597  11.6332  11.6333  11.6653
    11.6655  11.6883  11.8000  11.8137  11.8150  11.8366  11.8376  12.0025
    12.2619  12.4759  12.4804  12.7074  12.7097  12.8000  12.8629  13.0175
    13.0255  13.3770

          k = 0.0000 0.0510 0.0000 ( 34862 PWs)   bands (ev):

    -8.9927  -5.8262  -4.7205  -4.4640  -3.7100  -3.6709  -3.5006  -2.8540
    -2.8478  -2.5839  -2.3421  -2.3030  -2.1850  -2.0492  -1.9823  -1.8831
    -1.8632  -1.8011  -1.6932  -1.6765  -1.5897  -1.3979  -1.3844  -1.3004
    -1.2848  -1.2499  -1.2295  -1.2051  -1.1758  -1.1198  -1.1022  -1.0763
    -0.9522  -0.9215  -0.8909  -0.8792  -0.8362  -0.7661  -0.7446  -0.7413
    -0.7218  -0.7074  -0.6435  -0.6047  -0.5739  -0.5403  -0.4683  -0.4406
    -0.4186  -0.3685  -0.3345  -0.3336  -0.2631  -0.2624  -0.2378  -0.2348
    -0.1413  -0.1208  -0.0838  -0.0748  -0.0372  -0.0084   0.0160   0.0925
     0.0988   0.1110   0.1623   0.1632   0.2108   0.2247   0.2321   0.2514
     0.2882   0.3097   0.3433   0.3486   0.3868   0.3967   0.4292   0.4331
     0.4479   0.4839   0.5132   0.5225   0.5405   0.5627   0.5776   0.5974
     0.6038   0.6185   0.6218   0.6408   0.6544   0.6744   0.6987   0.7102
     0.7321   0.7377   0.7525   0.7645   0.7849   0.8151   0.8179   0.8374
     0.8582   0.8589   0.8876   0.8901   0.9015   0.9164   0.9282   0.9287
     0.9835   0.9855   1.0108   1.0468   1.0743   1.0857   1.1239   1.1496
     1.1582   1.2209   1.2454   1.2482   1.2932   1.2934   1.3163   1.3255
     1.3554   1.3571   1.3717   1.3797   1.4067   1.4202   1.5189   1.5225
     1.5755   1.5779   1.5988   1.6175   1.6239   1.6640   1.6929   1.7111
     1.7248   1.7326   1.7511   1.7645   1.7848   1.8072   1.8175   1.8474
     1.8573   1.8812   1.8916   1.9235   1.9333   1.9709   1.9728   1.9830
     1.9968   2.0157   2.0208   2.0349   2.0661   2.0894   2.1284   2.1299
     2.1489   2.1577   2.1750   2.1777   2.1919   2.2254   2.2342   2.2706
     2.2717   2.2814   2.2973   2.3023   2.3060   2.3194   2.3358   2.3628
     2.4029   2.4119   2.4323   2.4428   2.4454   2.4551   2.5173   2.5423
     2.7922   2.8155   2.8854   2.9071   3.0598   3.1308   3.1958   3.3111
     3.5339   3.7916   3.9094   4.1133   4.2813   4.4020   4.4158   4.6548
     4.7905   5.0224   5.1469   5.3925   5.6066   5.6700   5.9359   6.1438
     6.3886   6.5843   6.8240   7.0205   7.0628   7.2342   7.3721   7.5274
     7.5648   8.2066   8.3327   8.4611   8.5652   8.9491   8.9897   9.0117
     9.1586   9.1656   9.2435   9.2604   9.3711   9.3814   9.4725   9.5549
     9.5749   9.6306   9.7820  10.0613  10.0643  10.2460  10.4572  10.4949
    10.6600  10.7941  10.8258  10.9478  10.9561  11.1307  11.2181  11.2812
    11.3343  11.4348  11.5823  11.6705  11.7040  11.7865  11.8948  11.9383
    12.0024  12.1669  12.2697  12.3097  12.3701  12.6041  12.6570  12.7557
    12.8336  13.0710  13.1461  13.1613  13.2032  13.2348  13.3031  13.4767
    13.5265  13.5622

          k = 0.0442 0.0255 0.0000 ( 34862 PWs)   bands (ev):

    -8.9927  -5.8264  -4.7211  -4.4638  -3.7090  -3.6714  -3.5012  -2.8521
    -2.8477  -2.5855  -2.3416  -2.3028  -2.1854  -2.0487  -1.9832  -1.8830
    -1.8633  -1.8006  -1.6936  -1.6767  -1.5897  -1.3970  -1.3839  -1.3016
    -1.2843  -1.2506  -1.2294  -1.2058  -1.1764  -1.1209  -1.1021  -1.0771
    -0.9538  -0.9204  -0.8907  -0.8785  -0.8366  -0.7654  -0.7454  -0.7397
    -0.7215  -0.7050  -0.6431  -0.6030  -0.5757  -0.5410  -0.4665  -0.4397
    -0.4187  -0.3693  -0.3343  -0.3331  -0.2643  -0.2614  -0.2379  -0.2349
    -0.1417  -0.1202  -0.0825  -0.0747  -0.0374  -0.0084   0.0164   0.0933
     0.0982   0.1086   0.1624   0.1631   0.2110   0.2250   0.2312   0.2512
     0.2886   0.3099   0.3425   0.3488   0.3870   0.3981   0.4290   0.4330
     0.4479   0.4835   0.5145   0.5217   0.5376   0.5616   0.5767   0.5968
     0.6050   0.6203   0.6218   0.6414   0.6548   0.6750   0.6985   0.7093
     0.7319   0.7372   0.7525   0.7637   0.7852   0.8145   0.8179   0.8377
     0.8575   0.8592   0.8874   0.8898   0.9016   0.9151   0.9279   0.9284
     0.9824   0.9858   1.0112   1.0469   1.0749   1.0860   1.1250   1.1499
     1.1585   1.2202   1.2445   1.2477   1.2929   1.2930   1.3167   1.3254
     1.3550   1.3568   1.3715   1.3794   1.4073   1.4201   1.5196   1.5216
     1.5751   1.5786   1.5990   1.6175   1.6246   1.6636   1.6931   1.7106
     1.7249   1.7322   1.7509   1.7645   1.7842   1.8075   1.8174   1.8479
     1.8574   1.8813   1.8917   1.9237   1.9337   1.9710   1.9732   1.9836
     1.9969   2.0160   2.0209   2.0350   2.0665   2.0896   2.1282   2.1294
     2.1488   2.1577   2.1748   2.1775   2.1917   2.2255   2.2342   2.2701
     2.2711   2.2804   2.2973   2.3029   2.3059   2.3198   2.3366   2.3633
     2.4029   2.4122   2.4330   2.4419   2.4460   2.4555   2.5163   2.5423
     2.7926   2.8138   2.8852   2.9079   3.0593   3.1304   3.1962   3.3138
     3.5313   3.7914   3.9104   4.1145   4.2815   4.4027   4.4151   4.6562
     4.7897   5.0218   5.1461   5.3921   5.6095   5.6718   5.9350   6.1436
     6.3879   6.5868   6.8210   7.0207   7.0628   7.2388   7.3719   7.5243
     7.5627   8.2065   8.3326   8.4610   8.5587   8.9509   8.9932   9.0134
     9.1581   9.1678   9.2437   9.2600   9.3702   9.3789   9.4726   9.5538
     9.5743   9.6300   9.7824  10.0617  10.0683  10.2467  10.4563  10.4931
    10.6566  10.7942  10.8251  10.9487  10.9544  11.1303  11.2179  11.2819
    11.3344  11.4326  11.5837  11.6714  11.7065  11.7866  11.8963  11.9398
    12.0001  12.1676  12.2692  12.3106  12.3716  12.6014  12.6565  12.7542
    12.8349  13.0724  13.1473  13.1612  13.2020  13.2351  13.3051  13.4753
    13.5240  13.5624

          k = 0.0442 0.0765 0.0000 ( 34881 PWs)   bands (ev):

    -8.9866  -5.1043  -5.1014  -4.9914  -3.9236  -3.8884  -3.5911  -2.6054
    -2.5080  -2.2736  -2.2645  -2.2636  -2.0476  -2.0318  -1.9262  -1.7834
    -1.6577  -1.6448  -1.6364  -1.6074  -1.6030  -1.5846  -1.5685  -1.4959
    -1.4765  -1.3672  -1.3630  -1.3003  -1.1868  -1.1359  -1.1338  -1.0457
    -1.0438  -1.0360  -1.0144  -1.0108  -1.0000  -0.8504  -0.8370  -0.7694
    -0.5795  -0.5702  -0.5660  -0.5435  -0.5352  -0.5284  -0.5222  -0.4571
    -0.4339  -0.2550  -0.2309  -0.1999  -0.1793  -0.1733  -0.1590  -0.1400
    -0.1178  -0.0825  -0.0675  -0.0605  -0.0147   0.0054   0.0447   0.0477
     0.0958   0.1034   0.1189   0.1216   0.1279   0.1471   0.1657   0.2782
     0.2888   0.2957   0.3030   0.3168   0.3417   0.3828   0.4061   0.4124
     0.4137   0.4174   0.4385   0.4392   0.4451   0.4680   0.4867   0.4971
     0.5060   0.5190   0.5263   0.5443   0.5488   0.6516   0.6795   0.6901
     0.7055   0.7497   0.7700   0.7843   0.7865   0.7892   0.8164   0.8685
     0.8742   0.8749   0.8960   0.9078   0.9341   0.9428   0.9489   1.0295
     1.0366   1.0447   1.0846   1.1403   1.1546   1.1777   1.1838   1.1924
     1.2013   1.2079   1.2503   1.2523   1.2532   1.2688   1.2717   1.2775
     1.3266   1.3303   1.3684   1.4026   1.4208   1.4299   1.4510   1.4785
     1.5257   1.5321   1.5552   1.5566   1.5745   1.6063   1.6221   1.6322
     1.6756   1.6784   1.6864   1.7003   1.7188   1.7264   1.7335   1.7858
     1.7989   1.8061   1.8226   1.8542   1.8889   1.9040   1.9086   2.0208
     2.0640   2.0717   2.0780   2.0953   2.1035   2.1475   2.1715   2.1899
     2.1937   2.2180   2.2281   2.2416   2.2478   2.2840   2.2840   2.2856
     2.3093   2.3166   2.3269   2.3425   2.3439   2.3572   2.4215   2.4280
     2.4300   2.4382   2.4398   2.4531   2.4632   2.6657   2.7768   3.0012
     3.0347   3.0973   3.1269   3.2021   3.3493   3.4701   3.6821   3.7517
     3.9202   4.0556   4.0596   4.0921   4.1614   4.5156   4.5584   4.6941
     4.8277   4.9361   5.0626   5.1473   5.2663   5.4408   5.4535   5.4692
     5.5757   5.6616   5.7095   6.4287   6.7634   6.9218   7.8057   7.8239
     7.8241   7.9716   7.9725   7.9777   8.4252   8.5245   8.5387   8.7516
     8.9068   8.9477   9.0277   9.2588   9.2614   9.2991   9.4561   9.5531
     9.5859   9.8802   9.8891  10.1276  10.5541  10.6252  10.7808  11.0030
    11.0343  11.1090  11.1614  11.2304  11.3541  11.4115  11.4146  11.8090
    11.8894  11.9017  11.9348  11.9632  11.9971  12.0093  12.0653  12.1613
    12.3121  12.3163  12.3900  12.6291  12.6366  12.6542  12.7242  12.7934
    12.8062  12.8218  12.8925  12.8977  12.9207  13.0422  13.1773  13.2790
    13.3386  13.5854

          k = 0.0442-0.0255 0.0000 ( 34862 PWs)   bands (ev):

    -8.9927  -5.8263  -4.7209  -4.4640  -3.7093  -3.6711  -3.5011  -2.8529
    -2.8477  -2.5842  -2.3416  -2.3031  -2.1854  -2.0494  -1.9829  -1.8832
    -1.8626  -1.8006  -1.6933  -1.6769  -1.5897  -1.3970  -1.3842  -1.3014
    -1.2844  -1.2504  -1.2294  -1.2054  -1.1762  -1.1209  -1.1028  -1.0770
    -0.9544  -0.9210  -0.8908  -0.8788  -0.8367  -0.7655  -0.7450  -0.7399
    -0.7217  -0.7055  -0.6434  -0.6033  -0.5754  -0.5408  -0.4664  -0.4401
    -0.4187  -0.3689  -0.3342  -0.3333  -0.2637  -0.2617  -0.2378  -0.2347
    -0.1417  -0.1204  -0.0830  -0.0746  -0.0374  -0.0080   0.0162   0.0934
     0.0984   0.1094   0.1625   0.1630   0.2109   0.2249   0.2317   0.2510
     0.2887   0.3097   0.3429   0.3484   0.3869   0.3979   0.4290   0.4329
     0.4478   0.4834   0.5145   0.5221   0.5384   0.5616   0.5769   0.5969
     0.6046   0.6197   0.6219   0.6411   0.6545   0.6753   0.6985   0.7096
     0.7319   0.7374   0.7526   0.7637   0.7851   0.8146   0.8179   0.8376
     0.8576   0.8592   0.8874   0.8898   0.9016   0.9155   0.9280   0.9287
     0.9828   0.9858   1.0111   1.0469   1.0744   1.0863   1.1248   1.1499
     1.1584   1.2204   1.2449   1.2481   1.2930   1.2933   1.3165   1.3254
     1.3553   1.3569   1.3716   1.3795   1.4069   1.4203   1.5195   1.5219
     1.5752   1.5782   1.5990   1.6174   1.6245   1.6637   1.6931   1.7105
     1.7250   1.7323   1.7508   1.7646   1.7844   1.8074   1.8173   1.8476
     1.8575   1.8814   1.8917   1.9236   1.9335   1.9710   1.9729   1.9835
     1.9969   2.0159   2.0208   2.0348   2.0664   2.0895   2.1284   2.1294
     2.1488   2.1576   2.1748   2.1774   2.1918   2.2253   2.2341   2.2704
     2.2712   2.2807   2.2974   2.3027   2.3060   2.3197   2.3363   2.3631
     2.4028   2.4121   2.4328   2.4423   2.4459   2.4554   2.5164   2.5423
     2.7923   2.8144   2.8852   2.9077   3.0595   3.1304   3.1961   3.3133
     3.5312   3.7921   3.9101   4.1143   4.2816   4.4026   4.4149   4.6559
     4.7897   5.0221   5.1460   5.3918   5.6091   5.6712   5.9351   6.1438
     6.3881   6.5861   6.8214   7.0207   7.0629   7.2370   7.3721   7.5254
     7.5634   8.2066   8.3327   8.4610   8.5606   8.9508   8.9920   9.0131
     9.1584   9.1676   9.2437   9.2601   9.3705   9.3794   9.4725   9.5541
     9.5744   9.6302   9.7822  10.0609  10.0685  10.2467  10.4565  10.4936
    10.6572  10.7942  10.8252  10.9484  10.9553  11.1305  11.2179  11.2816
    11.3343  11.4331  11.5833  11.6711  11.7063  11.7866  11.8959  11.9395
    12.0002  12.1674  12.2689  12.3105  12.3713  12.6014  12.6569  12.7546
    12.8349  13.0720  13.1470  13.1612  13.2022  13.2350  13.3050  13.4757
    13.5245  13.5624

     the Fermi energy is     2.1887 ev

!    total energy              =   -3634.76762676 Ry
     Harris-Foulkes estimate   =   -3634.76762759 Ry
     estimated scf accuracy    <       0.00000060 Ry

     The total energy is the sum of the following terms:

     one-electron contribution =  -24302.69827172 Ry
     hartree contribution      =   12551.73837130 Ry
     xc contribution           =   -1509.48404331 Ry
     ewald contribution        =    9625.83854081 Ry
     electric field correction =       0.00002408 Ry
     smearing contrib. (-TS)   =      -0.16224793 Ry

     total magnetization       =    19.95 Bohr mag/cell
     absolute magnetization    =    23.47 Bohr mag/cell

     convergence has been achieved in  12 iterations

     Forces acting on atoms (Ry/au):


     negative rho (up, down):  2.702E-04 2.129E-04
     atom    1 type  1   force =    -0.00016077    0.00006967    0.00454308
     atom    2 type  1   force =     0.00000951    0.00027867   -0.00367502
     atom    3 type  1   force =     0.00035355    0.00015429    0.00041473
     atom    4 type  1   force =    -0.00005322    0.00002021   -0.00092490
     atom    5 type  1   force =     0.00047082    0.00034660    0.00542725
     atom    6 type  1   force =    -0.00073988   -0.00023629   -0.00396747
     atom    7 type  1   force =     0.00029669    0.00020283   -0.00001846
     atom    8 type  1   force =    -0.00037805    0.00030148   -0.00107769
     atom    9 type  1   force =     0.00004576   -0.00020893    0.00459976
     atom   10 type  1   force =     0.00029334   -0.00017682   -0.00374400
     atom   11 type  1   force =     0.00012071    0.00032806    0.00081572
     atom   12 type  1   force =    -0.00012040    0.00027355   -0.00069402
     atom   13 type  1   force =     0.00017328    0.00002446    0.00454855
     atom   14 type  1   force =     0.00039717    0.00025518   -0.00489747
     atom   15 type  1   force =    -0.00034558    0.00012899    0.00042539
     atom   16 type  1   force =    -0.00046233   -0.00012830   -0.00010280
     atom   17 type  1   force =    -0.00003212   -0.00002704    0.00429994
     atom   18 type  1   force =     0.00073259   -0.00027924   -0.00394173
     atom   19 type  1   force =    -0.00007974   -0.00002612   -0.00175427
     atom   20 type  1   force =    -0.00119637   -0.00054178   -0.00035981
     atom   21 type  1   force =    -0.00009987    0.00002764    0.00437641
     atom   22 type  1   force =    -0.00004178    0.00092035   -0.00382816
     atom   23 type  1   force =     0.00032425   -0.00038186    0.00008727
     atom   24 type  1   force =    -0.00011434   -0.00048195   -0.00009169
     atom   25 type  1   force =    -0.00001219   -0.00057515    0.00541053
     atom   26 type  1   force =    -0.00035210    0.00033505   -0.00489912
     atom   27 type  1   force =     0.00003049    0.00003040   -0.00047512
     atom   28 type  1   force =     0.00050353    0.00002508   -0.00007498
     atom   29 type  1   force =    -0.00043653    0.00031260    0.00539286
     atom   30 type  1   force =     0.00008991   -0.00032709   -0.00496015
     atom   31 type  1   force =    -0.00024262    0.00014248   -0.00005805
     atom   32 type  1   force =     0.00016382   -0.00004662   -0.00022546
     atom   33 type  1   force =     0.00005478    0.00003869    0.00432957
     atom   34 type  1   force =    -0.00020439   -0.00013766   -0.00377343
     atom   35 type  1   force =    -0.00036524   -0.00032224    0.00004667
     atom   36 type  1   force =     0.00024350    0.00039222   -0.00059776
     atom   37 type  2   force =     0.00113381   -0.00071142   -0.00057617

     Total force =     0.019611     Total SCF correction =     0.002528
     SCF correction compared to forces is large: reduce conv_thr to get better values
 !ASE

     Writing output data file calc.save
 
     init_run     :     26.74s CPU     31.17s WALL (       1 calls)
     electrons    :  17832.99s CPU  20503.31s WALL (      11 calls)
     update_pot   :     22.46s CPU     23.82s WALL (      10 calls)
     forces       :    505.72s CPU    523.97s WALL (      11 calls)

     Called by init_run:
     wfcinit      :     17.72s CPU     21.55s WALL (       1 calls)
     potinit      :      0.92s CPU      1.00s WALL (       1 calls)

     Called by electrons:
     c_bands      :  11762.60s CPU  13806.93s WALL (     274 calls)
     sum_band     :   4390.53s CPU   4900.71s WALL (     274 calls)
     v_of_rho     :     95.12s CPU    110.94s WALL (     285 calls)
     newd         :   1621.79s CPU   1718.88s WALL (     285 calls)
     mix_rho      :     18.38s CPU     22.39s WALL (     274 calls)

     Called by c_bands:
     init_us_2    :     63.34s CPU     67.39s WALL (    5600 calls)
     cegterg      :  11393.81s CPU  13420.72s WALL (    2740 calls)

     Called by *egterg:
     h_psi        :   5938.52s CPU   7542.97s WALL (    7319 calls)
     s_psi        :    946.01s CPU    976.30s WALL (    7319 calls)
     g_psi        :     23.74s CPU     24.16s WALL (    4569 calls)
     cdiaghg      :   1904.64s CPU   1951.38s WALL (    7209 calls)

     Called by h_psi:
     add_vuspsi   :    954.77s CPU    984.47s WALL (    7319 calls)

     General routines
     calbec       :   1475.52s CPU   1507.31s WALL (   10169 calls)
     fft          :     87.45s CPU    103.71s WALL (    8934 calls)
     ffts         :      1.35s CPU      1.87s WALL (    1118 calls)
     fftw         :   3374.91s CPU   5258.44s WALL ( 4110092 calls)
     interpolate  :     10.51s CPU     15.29s WALL (    1118 calls)
     davcio       :      0.03s CPU      0.62s WALL (      10 calls)
 
     Parallel routines
     fft_scatter  :   2020.03s CPU   3125.30s WALL ( 4120144 calls)
 
     PWSCF        :     5h 7m CPU        5h52m WALL

 
   This run was terminated on:  20:49:51  10Mar2017            

=------------------------------------------------------------------------------=
   JOB DONE.
=------------------------------------------------------------------------------=
