  python dir          : /home/vossj/suncat/lib/python2.7/site-packages/espresso
  espresso dir        : /home/vossj/suncat/esdld/espresso-dynpy-beef/bin
  pseudo dir          : /home/alatimer/bin/psp/esp_psp_w_gbrvRu/
  ase-espresso py git : ffa2778-git



     Program PWSCF v.5.1rc2 (svn rev. ) starts on 20Apr2018 at 13:26: 2 

     This program is part of the open-source Quantum ESPRESSO suite
     for quantum simulation of materials; please cite
         "P. Giannozzi et al., J. Phys.:Condens. Matter 21 395502 (2009);
          URL http://www.quantum-espresso.org", 
     in publications or presentations arising from this work. More details at
     http://www.quantum-espresso.org/quote

     Parallel version (MPI), running on    16 processors
     R & G space division:  proc/nbgrp/npool/nimage =      16
     Reading input from pw.inp
     Message from routine read_cards :
     DEPRECATED: no units specified in CELL_PARAMETERS card

     Current dimensions of program PWSCF are:
     Max number of different atomic species (ntypx) = 10
     Max number of k-points (npk) =  40000
     Max angular momentum in pseudopotentials (lmaxx) =  3
     Presently no symmetry can be used with electric field


     IMPORTANT: XC functional enforced from input :
     Exchange-correlation      = RPBE ( 1  4 28  4 0)
     Any further DFT definition will be discarded
     Please, verify this is what you really want


     Subspace diagonalization in iterative solution of the eigenvalue problem:
     a serial algorithm will be used

 
     Parallelization info
     --------------------
     sticks:   dense  smooth     PW     G-vecs:    dense   smooth      PW
     Min         367     147     39               123943    31337    4337
     Max         368     148     40               123966    31384    4354
     Sum        5877    2361    631              1983193   501747   69475
 
     Generating pointlists ...
     new r_m :   0.4125 (alat units)  0.7795 (a.u.) for type    1
     new r_m :   0.4125 (alat units)  0.7795 (a.u.) for type    2


     bravais-lattice index     =            0
     lattice parameter (alat)  =       1.8897  a.u.
     unit-cell volume          =   12682.1321 (a.u.)^3
     number of atoms/cell      =           37
     number of atomic types    =            2
     number of electrons       =       330.00
     number of Kohn-Sham states=          265
     kinetic-energy cutoff     =      44.0992  Ry
     charge density cutoff     =     440.9919  Ry
     convergence threshold     =      7.3E-07
     mixing beta               =       0.1000
     number of iterations used =           10  plain     mixing
     Exchange-correlation      = RPBE ( 1  4 28  4 0)
     nstep                     =           50


     celldm(1)=   1.889726  celldm(2)=   0.000000  celldm(3)=   0.000000
     celldm(4)=   0.000000  celldm(5)=   0.000000  celldm(6)=   0.000000

     crystal axes: (cart. coord. in units of alat)
               a(1) = (   6.191574   0.000000   0.000000 )  
               a(2) = (   0.000000   7.583099   0.000000 )  
               a(3) = (   0.000000   0.000000  40.026524 )  

     reciprocal axes: (cart. coord. in units 2 pi/alat)
               b(1) = (  0.161510  0.000000  0.000000 )  
               b(2) = (  0.000000  0.131872  0.000000 )  
               b(3) = (  0.000000  0.000000  0.024983 )  


     PseudoPot. # 1 for Co read from file:
     /home/alatimer/bin/psp/esp_psp_w_gbrvRu/Co.UPF
     MD5 check sum: f36dda9fe147c5f42efc2a4f7ec0da3d
     Pseudo is Ultrasoft + core correction, Zval =  9.0
     Generated by new atomic code, or converted to UPF format
     Using radial grid of  937 points,  3 beta functions with: 
                l(1) =   1
                l(2) =   2
                l(3) =   2
     Q(r) pseudized with  8 coefficients,  rinner =    1.000   1.000   1.000
                                                       1.000   1.000

     PseudoPot. # 2 for  O read from file:
     /home/alatimer/bin/psp/esp_psp_w_gbrvRu/O.UPF
     MD5 check sum: e057bbcf3229fb5d8c36c0c92f9568b4
     Pseudo is Ultrasoft + core correction, Zval =  6.0
     Generated using "atomic" code by A. Dal Corso  v.5.0.2 svn rev. 9415
     Using radial grid of 1095 points,  4 beta functions with: 
                l(1) =   0
                l(2) =   0
                l(3) =   1
                l(4) =   1
     Q(r) pseudized with 0 coefficients 


     atomic species   valence    mass     pseudopotential
        Co1            9.00    58.93320     Co( 1.00)
        O1             6.00    15.99940      O( 1.00)

     Starting magnetic structure 
     atomic species   magnetization
        Co1          0.444
        O1           0.667

     No symmetry found



   Cartesian axes

     site n.     atom                  positions (alat units)
         1           Co1 tau(   1) = (   4.1277161   1.2638498  24.0265242  )
         2           Co1 tau(   2) = (   4.1277161   3.7915494  24.0265242  )
         3           Co1 tau(   3) = (   4.1277161   6.3192490  24.0265242  )
         4           Co1 tau(   4) = (   2.0638581   0.0000000  23.2968402  )
         5           Co1 tau(   5) = (   2.0638581   2.5276996  23.2968402  )
         6           Co1 tau(   6) = (   2.0638581   5.0553992  23.2968402  )
         7           Co1 tau(   7) = (   0.0000000   1.2638498  22.5671562  )
         8           Co1 tau(   8) = (   0.0000000   3.7915494  22.5671562  )
         9           Co1 tau(   9) = (   0.0000000   6.3192490  22.5671562  )
        10           Co1 tau(  10) = (   4.1277161   0.0000000  21.8374721  )
        11           Co1 tau(  11) = (   4.1277161   2.5276996  21.8374721  )
        12           Co1 tau(  12) = (   4.1277161   5.0553992  21.8374721  )
        13           Co1 tau(  13) = (   2.0638581   1.2638498  21.1077881  )
        14           Co1 tau(  14) = (   2.0638581   3.7915494  21.1077881  )
        15           Co1 tau(  15) = (   2.0638581   6.3192490  21.1077881  )
        16           Co1 tau(  16) = (   0.0000000   0.0000000  20.3781041  )
        17           Co1 tau(  17) = (   0.0000000   2.5276996  20.3781041  )
        18           Co1 tau(  18) = (   0.0000000   5.0553992  20.3781041  )
        19           Co1 tau(  19) = (   4.1277161   1.2638498  19.6484201  )
        20           Co1 tau(  20) = (   4.1277161   3.7915494  19.6484201  )
        21           Co1 tau(  21) = (   4.1277161   6.3192490  19.6484201  )
        22           Co1 tau(  22) = (   2.0638581   0.0000000  18.9187361  )
        23           Co1 tau(  23) = (   2.0638581   2.5276996  18.9187361  )
        24           Co1 tau(  24) = (   2.0638581   5.0553992  18.9187361  )
        25           Co1 tau(  25) = (   0.0000000   1.2638498  18.1890521  )
        26           Co1 tau(  26) = (   0.0000000   3.7915494  18.1890521  )
        27           Co1 tau(  27) = (   0.0000000   6.3192490  18.1890521  )
        28           Co1 tau(  28) = (   4.1277161   0.0000000  17.4593680  )
        29           Co1 tau(  29) = (   4.1277161   2.5276996  17.4593680  )
        30           Co1 tau(  30) = (   4.1277161   5.0553992  17.4593680  )
        31           Co1 tau(  31) = (   2.0638581   1.2638498  16.7296840  )
        32           Co1 tau(  32) = (   2.0638581   3.7915494  16.7296840  )
        33           Co1 tau(  33) = (   2.0638581   6.3192490  16.7296840  )
        34           Co1 tau(  34) = (   0.0000000   0.0000000  16.0000000  )
        35           Co1 tau(  35) = (   0.0000000   2.5276996  16.0000000  )
        36           Co1 tau(  36) = (   0.0000000   5.0553992  16.0000000  )
        37           O1  tau(  37) = (   0.0000000   2.5276996  23.7671562  )

     number of k points=    10  Fermi-Dirac smearing, width (Ry)=  0.0073
                       cart. coord. in units 2pi/alat
        k(    1) = (   0.0000000   0.0000000   0.0000000), wk =   0.1111111
        k(    2) = (   0.0000000   0.0439574   0.0000000), wk =   0.2222222
        k(    3) = (   0.0538366   0.0000000   0.0000000), wk =   0.2222222
        k(    4) = (   0.0538366   0.0439574   0.0000000), wk =   0.2222222
        k(    5) = (   0.0538366  -0.0439574   0.0000000), wk =   0.2222222
        k(    6) = (   0.0000000   0.0000000   0.0000000), wk =   0.1111111
        k(    7) = (   0.0000000   0.0439574   0.0000000), wk =   0.2222222
        k(    8) = (   0.0538366   0.0000000   0.0000000), wk =   0.2222222
        k(    9) = (   0.0538366   0.0439574   0.0000000), wk =   0.2222222
        k(   10) = (   0.0538366  -0.0439574   0.0000000), wk =   0.2222222

     Dense  grid:  1983193 G-vectors     FFT dimensions: (  80,  96, 512)

     Smooth grid:   501747 G-vectors     FFT dimensions: (  50,  64, 320)

     Largest allocated arrays     est. size (Mb)     dimensions
        Kohn-Sham Wavefunctions        16.00 Mb     (    3956,  265)
        NL pseudopotentials            28.73 Mb     (    3956,  476)
        Each V/rho on FFT grid          7.50 Mb     (  245760,   2)
        Each G-vector array             0.95 Mb     (  123962)
        G-vector shells                 0.41 Mb     (   54356)
     Largest temporary arrays     est. size (Mb)     dimensions
        Auxiliary wavefunctions        63.99 Mb     (    3956, 1060)
        Each subspace H/S matrix       17.14 Mb     (    1060, 1060)
        Each <psi_i|beta_j> matrix      1.92 Mb     (     476,  265)
        Arrays for rho mixing          37.50 Mb     (  245760,   10)

     Check: negative/imaginary core charge=   -0.000002    0.000000

     Initial potential from superposition of free atoms
     Check: negative starting charge=(component1):   -0.004336
     Check: negative starting charge=(component2):   -0.001665

     starting charge  329.99032, renormalised to  330.00000

     negative rho (up, down):  4.336E-03 1.665E-03
 
     Adding external electric field

     Computed dipole along edir(3) : 
        Dipole               -0.0012 Ry au,         -0.0031 Debye
        Dipole field         -0.0000 Ry au
 
        Potential amp.        0.0002 Ry
        Total length         73.7482 bohr
 
 
     Adding external electric field

     Computed dipole along edir(3) : 
        Dipole               -0.0012 Ry au,         -0.0031 Debye
        Dipole field         -0.0000 Ry au
 
        Potential amp.        0.0002 Ry
        Total length         73.7482 bohr
 
     Starting wfc are  328 randomized atomic wfcs

     total cpu time spent up to now is       48.9 secs

     Self-consistent Calculation

     iteration #  1     ecut=    44.10 Ry     beta=0.10
     Davidson diagonalization with overlap
     ethr =  1.00E-02,  avg # of iterations =  7.5

     negative rho (up, down):  4.226E-03 1.863E-03
 
     Adding external electric field

     Computed dipole along edir(3) : 
        Dipole                0.0037 Ry au,          0.0094 Debye
        Dipole field          0.0000 Ry au
 
        Potential amp.       -0.0005 Ry
        Total length         73.7482 bohr
 
 
     Adding external electric field

     Computed dipole along edir(3) : 
        Dipole                0.0037 Ry au,          0.0094 Debye
        Dipole field          0.0000 Ry au
 
        Potential amp.       -0.0005 Ry
        Total length         73.7482 bohr
 
 
     Magnetic moment per site:
     atom:    1    charge:    3.1749    magn:    1.4240    constr:    0.0000
     atom:    2    charge:    3.1750    magn:    1.4240    constr:    0.0000
     atom:    3    charge:    3.1750    magn:    1.4228    constr:    0.0000
     atom:    4    charge:    3.2024    magn:    1.3965    constr:    0.0000
     atom:    5    charge:    3.2032    magn:    1.3971    constr:    0.0000
     atom:    6    charge:    3.2024    magn:    1.3965    constr:    0.0000
     atom:    7    charge:    3.2166    magn:    1.3849    constr:    0.0000
     atom:    8    charge:    3.2166    magn:    1.3849    constr:    0.0000
     atom:    9    charge:    3.2171    magn:    1.3817    constr:    0.0000
     atom:   10    charge:    3.2302    magn:    1.3685    constr:    0.0000
     atom:   11    charge:    3.2322    magn:    1.3669    constr:    0.0000
     atom:   12    charge:    3.2302    magn:    1.3685    constr:    0.0000
     atom:   13    charge:    3.2310    magn:    1.3692    constr:    0.0000
     atom:   14    charge:    3.2310    magn:    1.3691    constr:    0.0000
     atom:   15    charge:    3.2303    magn:    1.3694    constr:    0.0000
     atom:   16    charge:    3.2309    magn:    1.3682    constr:    0.0000
     atom:   17    charge:    3.2296    magn:    1.3698    constr:    0.0000
     atom:   18    charge:    3.2309    magn:    1.3682    constr:    0.0000
     atom:   19    charge:    3.2305    magn:    1.3684    constr:    0.0000
     atom:   20    charge:    3.2305    magn:    1.3684    constr:    0.0000
     atom:   21    charge:    3.2301    magn:    1.3687    constr:    0.0000
     atom:   22    charge:    3.2307    magn:    1.3692    constr:    0.0000
     atom:   23    charge:    3.2304    magn:    1.3693    constr:    0.0000
     atom:   24    charge:    3.2307    magn:    1.3692    constr:    0.0000
     atom:   25    charge:    3.2306    magn:    1.3681    constr:    0.0000
     atom:   26    charge:    3.2306    magn:    1.3681    constr:    0.0000
     atom:   27    charge:    3.2300    magn:    1.3688    constr:    0.0000
     atom:   28    charge:    3.2158    magn:    1.3817    constr:    0.0000
     atom:   29    charge:    3.2162    magn:    1.3816    constr:    0.0000
     atom:   30    charge:    3.2158    magn:    1.3817    constr:    0.0000
     atom:   31    charge:    3.2032    magn:    1.3956    constr:    0.0000
     atom:   32    charge:    3.2031    magn:    1.3956    constr:    0.0000
     atom:   33    charge:    3.2028    magn:    1.3957    constr:    0.0000
     atom:   34    charge:    3.1749    magn:    1.4231    constr:    0.0000
     atom:   35    charge:    3.1750    magn:    1.4232    constr:    0.0000
     atom:   36    charge:    3.1749    magn:    1.4231    constr:    0.0000
     atom:   37    charge:    2.0266    magn:    1.2534    constr:    0.0000

     total cpu time spent up to now is      202.3 secs

     total energy              =   -2913.28868591 Ry
     Harris-Foulkes estimate   =   -2916.90656033 Ry
     estimated scf accuracy    <      23.99433884 Ry

     total magnetization       =    75.51 Bohr mag/cell
     absolute magnetization    =    75.56 Bohr mag/cell

     iteration #  2     ecut=    44.10 Ry     beta=0.10
     Davidson diagonalization with overlap
     ethr =  7.27E-03,  avg # of iterations =  3.1

     negative rho (up, down):  5.302E-03 3.059E-03
 
     Adding external electric field

     Computed dipole along edir(3) : 
        Dipole               -0.0283 Ry au,         -0.0719 Debye
        Dipole field         -0.0000 Ry au
 
        Potential amp.        0.0041 Ry
        Total length         73.7482 bohr
 
 
     Adding external electric field

     Computed dipole along edir(3) : 
        Dipole               -0.0283 Ry au,         -0.0719 Debye
        Dipole field         -0.0000 Ry au
 
        Potential amp.        0.0041 Ry
        Total length         73.7482 bohr
 
 
     Magnetic moment per site:
     atom:    1    charge:    3.2037    magn:    1.3947    constr:    0.0000
     atom:    2    charge:    3.2037    magn:    1.3947    constr:    0.0000
     atom:    3    charge:    3.2035    magn:    1.3934    constr:    0.0000
     atom:    4    charge:    3.2236    magn:    1.3707    constr:    0.0000
     atom:    5    charge:    3.2240    magn:    1.3722    constr:    0.0000
     atom:    6    charge:    3.2236    magn:    1.3707    constr:    0.0000
     atom:    7    charge:    3.2242    magn:    1.3698    constr:    0.0000
     atom:    8    charge:    3.2242    magn:    1.3698    constr:    0.0000
     atom:    9    charge:    3.2253    magn:    1.3652    constr:    0.0000
     atom:   10    charge:    3.2180    magn:    1.3671    constr:    0.0000
     atom:   11    charge:    3.2194    magn:    1.3658    constr:    0.0000
     atom:   12    charge:    3.2180    magn:    1.3671    constr:    0.0000
     atom:   13    charge:    3.2096    magn:    1.3720    constr:    0.0000
     atom:   14    charge:    3.2096    magn:    1.3720    constr:    0.0000
     atom:   15    charge:    3.2090    magn:    1.3722    constr:    0.0000
     atom:   16    charge:    3.2044    magn:    1.3710    constr:    0.0000
     atom:   17    charge:    3.2041    magn:    1.3729    constr:    0.0000
     atom:   18    charge:    3.2044    magn:    1.3710    constr:    0.0000
     atom:   19    charge:    3.2040    magn:    1.3712    constr:    0.0000
     atom:   20    charge:    3.2040    magn:    1.3712    constr:    0.0000
     atom:   21    charge:    3.2039    magn:    1.3717    constr:    0.0000
     atom:   22    charge:    3.2091    magn:    1.3721    constr:    0.0000
     atom:   23    charge:    3.2088    magn:    1.3722    constr:    0.0000
     atom:   24    charge:    3.2091    magn:    1.3721    constr:    0.0000
     atom:   25    charge:    3.2179    magn:    1.3672    constr:    0.0000
     atom:   26    charge:    3.2179    magn:    1.3672    constr:    0.0000
     atom:   27    charge:    3.2176    magn:    1.3675    constr:    0.0000
     atom:   28    charge:    3.2243    magn:    1.3649    constr:    0.0000
     atom:   29    charge:    3.2244    magn:    1.3651    constr:    0.0000
     atom:   30    charge:    3.2243    magn:    1.3649    constr:    0.0000
     atom:   31    charge:    3.2237    magn:    1.3704    constr:    0.0000
     atom:   32    charge:    3.2237    magn:    1.3704    constr:    0.0000
     atom:   33    charge:    3.2234    magn:    1.3704    constr:    0.0000
     atom:   34    charge:    3.2035    magn:    1.3938    constr:    0.0000
     atom:   35    charge:    3.2035    magn:    1.3939    constr:    0.0000
     atom:   36    charge:    3.2035    magn:    1.3938    constr:    0.0000
     atom:   37    charge:    2.0327    magn:    1.2341    constr:    0.0000

     total cpu time spent up to now is      307.9 secs

     total energy              =   -2912.95898182 Ry
     Harris-Foulkes estimate   =   -2923.11822089 Ry
     estimated scf accuracy    <     239.87227370 Ry

     total magnetization       =    73.11 Bohr mag/cell
     absolute magnetization    =    73.21 Bohr mag/cell

     iteration #  3     ecut=    44.10 Ry     beta=0.10
     Davidson diagonalization with overlap
     ethr =  7.27E-03,  avg # of iterations =  1.0

     negative rho (up, down):  7.324E-03 4.690E-03
 
     Adding external electric field

     Computed dipole along edir(3) : 
        Dipole                0.0476 Ry au,          0.1209 Debye
        Dipole field          0.0000 Ry au
 
        Potential amp.       -0.0070 Ry
        Total length         73.7482 bohr
 
 
     Adding external electric field

     Computed dipole along edir(3) : 
        Dipole                0.0476 Ry au,          0.1209 Debye
        Dipole field          0.0000 Ry au
 
        Potential amp.       -0.0070 Ry
        Total length         73.7482 bohr
 
 
     Magnetic moment per site:
     atom:    1    charge:    3.2192    magn:    1.3742    constr:    0.0000
     atom:    2    charge:    3.2192    magn:    1.3742    constr:    0.0000
     atom:    3    charge:    3.2190    magn:    1.3727    constr:    0.0000
     atom:    4    charge:    3.2169    magn:    1.3675    constr:    0.0000
     atom:    5    charge:    3.2170    magn:    1.3692    constr:    0.0000
     atom:    6    charge:    3.2169    magn:    1.3675    constr:    0.0000
     atom:    7    charge:    3.2162    magn:    1.3659    constr:    0.0000
     atom:    8    charge:    3.2162    magn:    1.3659    constr:    0.0000
     atom:    9    charge:    3.2153    magn:    1.3637    constr:    0.0000
     atom:   10    charge:    3.2131    magn:    1.3610    constr:    0.0000
     atom:   11    charge:    3.2139    magn:    1.3602    constr:    0.0000
     atom:   12    charge:    3.2131    magn:    1.3610    constr:    0.0000
     atom:   13    charge:    3.2101    magn:    1.3624    constr:    0.0000
     atom:   14    charge:    3.2101    magn:    1.3624    constr:    0.0000
     atom:   15    charge:    3.2096    magn:    1.3624    constr:    0.0000
     atom:   16    charge:    3.2082    magn:    1.3591    constr:    0.0000
     atom:   17    charge:    3.2081    magn:    1.3609    constr:    0.0000
     atom:   18    charge:    3.2082    magn:    1.3591    constr:    0.0000
     atom:   19    charge:    3.2081    magn:    1.3591    constr:    0.0000
     atom:   20    charge:    3.2081    magn:    1.3591    constr:    0.0000
     atom:   21    charge:    3.2079    magn:    1.3596    constr:    0.0000
     atom:   22    charge:    3.2099    magn:    1.3622    constr:    0.0000
     atom:   23    charge:    3.2096    magn:    1.3622    constr:    0.0000
     atom:   24    charge:    3.2099    magn:    1.3622    constr:    0.0000
     atom:   25    charge:    3.2134    magn:    1.3607    constr:    0.0000
     atom:   26    charge:    3.2134    magn:    1.3607    constr:    0.0000
     atom:   27    charge:    3.2134    magn:    1.3607    constr:    0.0000
     atom:   28    charge:    3.2149    magn:    1.3628    constr:    0.0000
     atom:   29    charge:    3.2149    magn:    1.3632    constr:    0.0000
     atom:   30    charge:    3.2149    magn:    1.3628    constr:    0.0000
     atom:   31    charge:    3.2176    magn:    1.3665    constr:    0.0000
     atom:   32    charge:    3.2176    magn:    1.3665    constr:    0.0000
     atom:   33    charge:    3.2176    magn:    1.3662    constr:    0.0000
     atom:   34    charge:    3.2197    magn:    1.3725    constr:    0.0000
     atom:   35    charge:    3.2196    magn:    1.3727    constr:    0.0000
     atom:   36    charge:    3.2197    magn:    1.3725    constr:    0.0000
     atom:   37    charge:    2.0355    magn:    1.2143    constr:    0.0000

     total cpu time spent up to now is      401.5 secs

     total energy              =   -2916.68798989 Ry
     Harris-Foulkes estimate   =   -2917.13248694 Ry
     estimated scf accuracy    <      13.68272248 Ry

     total magnetization       =    75.12 Bohr mag/cell
     absolute magnetization    =    75.19 Bohr mag/cell

     iteration #  4     ecut=    44.10 Ry     beta=0.10
     Davidson diagonalization with overlap
     ethr =  4.15E-03,  avg # of iterations =  1.0

     negative rho (up, down):  8.292E-03 5.650E-03
 
     Adding external electric field

     Computed dipole along edir(3) : 
        Dipole               -0.6835 Ry au,         -1.7373 Debye
        Dipole field         -0.0007 Ry au
 
        Potential amp.        0.0999 Ry
        Total length         73.7482 bohr
 
 
     Adding external electric field

     Computed dipole along edir(3) : 
        Dipole               -0.6835 Ry au,         -1.7373 Debye
        Dipole field         -0.0007 Ry au
 
        Potential amp.        0.0999 Ry
        Total length         73.7482 bohr
 
 
     Magnetic moment per site:
     atom:    1    charge:    3.2291    magn:    1.3480    constr:    0.0000
     atom:    2    charge:    3.2291    magn:    1.3480    constr:    0.0000
     atom:    3    charge:    3.2287    magn:    1.3462    constr:    0.0000
     atom:    4    charge:    3.2215    magn:    1.3441    constr:    0.0000
     atom:    5    charge:    3.2213    magn:    1.3462    constr:    0.0000
     atom:    6    charge:    3.2215    magn:    1.3441    constr:    0.0000
     atom:    7    charge:    3.2145    magn:    1.3456    constr:    0.0000
     atom:    8    charge:    3.2145    magn:    1.3456    constr:    0.0000
     atom:    9    charge:    3.2146    magn:    1.3432    constr:    0.0000
     atom:   10    charge:    3.2076    magn:    1.3428    constr:    0.0000
     atom:   11    charge:    3.2088    magn:    1.3418    constr:    0.0000
     atom:   12    charge:    3.2076    magn:    1.3428    constr:    0.0000
     atom:   13    charge:    3.2079    magn:    1.3424    constr:    0.0000
     atom:   14    charge:    3.2079    magn:    1.3424    constr:    0.0000
     atom:   15    charge:    3.2079    magn:    1.3418    constr:    0.0000
     atom:   16    charge:    3.2066    magn:    1.3390    constr:    0.0000
     atom:   17    charge:    3.2065    magn:    1.3412    constr:    0.0000
     atom:   18    charge:    3.2066    magn:    1.3390    constr:    0.0000
     atom:   19    charge:    3.2065    magn:    1.3392    constr:    0.0000
     atom:   20    charge:    3.2065    magn:    1.3392    constr:    0.0000
     atom:   21    charge:    3.2063    magn:    1.3397    constr:    0.0000
     atom:   22    charge:    3.2069    magn:    1.3427    constr:    0.0000
     atom:   23    charge:    3.2067    magn:    1.3425    constr:    0.0000
     atom:   24    charge:    3.2069    magn:    1.3427    constr:    0.0000
     atom:   25    charge:    3.2060    magn:    1.3440    constr:    0.0000
     atom:   26    charge:    3.2060    magn:    1.3440    constr:    0.0000
     atom:   27    charge:    3.2060    magn:    1.3437    constr:    0.0000
     atom:   28    charge:    3.2108    magn:    1.3451    constr:    0.0000
     atom:   29    charge:    3.2110    magn:    1.3455    constr:    0.0000
     atom:   30    charge:    3.2108    magn:    1.3451    constr:    0.0000
     atom:   31    charge:    3.2168    magn:    1.3476    constr:    0.0000
     atom:   32    charge:    3.2168    magn:    1.3475    constr:    0.0000
     atom:   33    charge:    3.2168    magn:    1.3471    constr:    0.0000
     atom:   34    charge:    3.2237    magn:    1.3511    constr:    0.0000
     atom:   35    charge:    3.2235    magn:    1.3515    constr:    0.0000
     atom:   36    charge:    3.2237    magn:    1.3511    constr:    0.0000
     atom:   37    charge:    2.0420    magn:    1.1693    constr:    0.0000

     total cpu time spent up to now is      494.8 secs

     total energy              =   -2916.91918343 Ry
     Harris-Foulkes estimate   =   -2916.90379770 Ry
     estimated scf accuracy    <       3.36586571 Ry

     total magnetization       =    75.37 Bohr mag/cell
     absolute magnetization    =    75.45 Bohr mag/cell

     iteration #  5     ecut=    44.10 Ry     beta=0.10
     Davidson diagonalization with overlap
     ethr =  1.02E-03,  avg # of iterations =  6.8

     negative rho (up, down):  5.891E-03 4.832E-03
 
     Adding external electric field

     Computed dipole along edir(3) : 
        Dipole                0.0523 Ry au,          0.1330 Debye
        Dipole field          0.0001 Ry au
 
        Potential amp.       -0.0076 Ry
        Total length         73.7482 bohr
 
 
     Adding external electric field

     Computed dipole along edir(3) : 
        Dipole                0.0523 Ry au,          0.1330 Debye
        Dipole field          0.0001 Ry au
 
        Potential amp.       -0.0076 Ry
        Total length         73.7482 bohr
 
 
     Magnetic moment per site:
     atom:    1    charge:    3.2432    magn:    1.2888    constr:    0.0000
     atom:    2    charge:    3.2431    magn:    1.2888    constr:    0.0000
     atom:    3    charge:    3.2418    magn:    1.2862    constr:    0.0000
     atom:    4    charge:    3.2254    magn:    1.2883    constr:    0.0000
     atom:    5    charge:    3.2257    magn:    1.2907    constr:    0.0000
     atom:    6    charge:    3.2254    magn:    1.2883    constr:    0.0000
     atom:    7    charge:    3.2062    magn:    1.2939    constr:    0.0000
     atom:    8    charge:    3.2062    magn:    1.2939    constr:    0.0000
     atom:    9    charge:    3.2082    magn:    1.2922    constr:    0.0000
     atom:   10    charge:    3.1908    magn:    1.2961    constr:    0.0000
     atom:   11    charge:    3.1929    magn:    1.2944    constr:    0.0000
     atom:   12    charge:    3.1908    magn:    1.2961    constr:    0.0000
     atom:   13    charge:    3.1997    magn:    1.2908    constr:    0.0000
     atom:   14    charge:    3.1997    magn:    1.2907    constr:    0.0000
     atom:   15    charge:    3.2007    magn:    1.2889    constr:    0.0000
     atom:   16    charge:    3.2010    magn:    1.2863    constr:    0.0000
     atom:   17    charge:    3.2010    magn:    1.2894    constr:    0.0000
     atom:   18    charge:    3.2010    magn:    1.2863    constr:    0.0000
     atom:   19    charge:    3.2019    magn:    1.2858    constr:    0.0000
     atom:   20    charge:    3.2019    magn:    1.2858    constr:    0.0000
     atom:   21    charge:    3.2016    magn:    1.2864    constr:    0.0000
     atom:   22    charge:    3.2006    magn:    1.2890    constr:    0.0000
     atom:   23    charge:    3.2008    magn:    1.2882    constr:    0.0000
     atom:   24    charge:    3.2006    magn:    1.2890    constr:    0.0000
     atom:   25    charge:    3.1919    magn:    1.2945    constr:    0.0000
     atom:   26    charge:    3.1919    magn:    1.2945    constr:    0.0000
     atom:   27    charge:    3.1919    magn:    1.2935    constr:    0.0000
     atom:   28    charge:    3.2073    magn:    1.2910    constr:    0.0000
     atom:   29    charge:    3.2076    magn:    1.2918    constr:    0.0000
     atom:   30    charge:    3.2073    magn:    1.2910    constr:    0.0000
     atom:   31    charge:    3.2225    magn:    1.2897    constr:    0.0000
     atom:   32    charge:    3.2225    magn:    1.2897    constr:    0.0000
     atom:   33    charge:    3.2225    magn:    1.2889    constr:    0.0000
     atom:   34    charge:    3.2434    magn:    1.2854    constr:    0.0000
     atom:   35    charge:    3.2429    magn:    1.2862    constr:    0.0000
     atom:   36    charge:    3.2434    magn:    1.2854    constr:    0.0000
     atom:   37    charge:    2.0588    magn:    1.0490    constr:    0.0000

     total cpu time spent up to now is      621.2 secs

     total energy              =   -2916.78611067 Ry
     Harris-Foulkes estimate   =   -2917.52816206 Ry
     estimated scf accuracy    <     106.97611250 Ry

     total magnetization       =    75.11 Bohr mag/cell
     absolute magnetization    =    75.18 Bohr mag/cell

     iteration #  6     ecut=    44.10 Ry     beta=0.10
     Davidson diagonalization with overlap
     ethr =  1.02E-03,  avg # of iterations =  5.0

     negative rho (up, down):  5.104E-03 4.642E-03
 
     Adding external electric field

     Computed dipole along edir(3) : 
        Dipole                0.0087 Ry au,          0.0222 Debye
        Dipole field          0.0000 Ry au
 
        Potential amp.       -0.0013 Ry
        Total length         73.7482 bohr
 
 
     Adding external electric field

     Computed dipole along edir(3) : 
        Dipole                0.0087 Ry au,          0.0222 Debye
        Dipole field          0.0000 Ry au
 
        Potential amp.       -0.0013 Ry
        Total length         73.7482 bohr
 
 
     Magnetic moment per site:
     atom:    1    charge:    3.2476    magn:    1.2512    constr:    0.0000
     atom:    2    charge:    3.2476    magn:    1.2512    constr:    0.0000
     atom:    3    charge:    3.2458    magn:    1.2478    constr:    0.0000
     atom:    4    charge:    3.2181    magn:    1.2571    constr:    0.0000
     atom:    5    charge:    3.2201    magn:    1.2584    constr:    0.0000
     atom:    6    charge:    3.2181    magn:    1.2571    constr:    0.0000
     atom:    7    charge:    3.2082    magn:    1.2526    constr:    0.0000
     atom:    8    charge:    3.2082    magn:    1.2526    constr:    0.0000
     atom:    9    charge:    3.2090    magn:    1.2526    constr:    0.0000
     atom:   10    charge:    3.1939    magn:    1.2542    constr:    0.0000
     atom:   11    charge:    3.1971    magn:    1.2514    constr:    0.0000
     atom:   12    charge:    3.1939    magn:    1.2542    constr:    0.0000
     atom:   13    charge:    3.1947    magn:    1.2553    constr:    0.0000
     atom:   14    charge:    3.1947    magn:    1.2553    constr:    0.0000
     atom:   15    charge:    3.1943    magn:    1.2540    constr:    0.0000
     atom:   16    charge:    3.1965    magn:    1.2498    constr:    0.0000
     atom:   17    charge:    3.1972    magn:    1.2531    constr:    0.0000
     atom:   18    charge:    3.1965    magn:    1.2498    constr:    0.0000
     atom:   19    charge:    3.1967    magn:    1.2499    constr:    0.0000
     atom:   20    charge:    3.1967    magn:    1.2499    constr:    0.0000
     atom:   21    charge:    3.1966    magn:    1.2505    constr:    0.0000
     atom:   22    charge:    3.1943    magn:    1.2543    constr:    0.0000
     atom:   23    charge:    3.1940    magn:    1.2535    constr:    0.0000
     atom:   24    charge:    3.1943    magn:    1.2543    constr:    0.0000
     atom:   25    charge:    3.1943    magn:    1.2531    constr:    0.0000
     atom:   26    charge:    3.1943    magn:    1.2531    constr:    0.0000
     atom:   27    charge:    3.1942    magn:    1.2515    constr:    0.0000
     atom:   28    charge:    3.2081    magn:    1.2514    constr:    0.0000
     atom:   29    charge:    3.2080    magn:    1.2528    constr:    0.0000
     atom:   30    charge:    3.2081    magn:    1.2514    constr:    0.0000
     atom:   31    charge:    3.2177    magn:    1.2561    constr:    0.0000
     atom:   32    charge:    3.2177    magn:    1.2561    constr:    0.0000
     atom:   33    charge:    3.2182    magn:    1.2546    constr:    0.0000
     atom:   34    charge:    3.2463    magn:    1.2478    constr:    0.0000
     atom:   35    charge:    3.2458    magn:    1.2487    constr:    0.0000
     atom:   36    charge:    3.2463    magn:    1.2478    constr:    0.0000
     atom:   37    charge:    2.0697    magn:    0.9653    constr:    0.0000

     total cpu time spent up to now is      732.0 secs

     total energy              =   -2917.70062646 Ry
     Harris-Foulkes estimate   =   -2917.53384823 Ry
     estimated scf accuracy    <       5.83453714 Ry

     total magnetization       =    74.18 Bohr mag/cell
     absolute magnetization    =    74.39 Bohr mag/cell

     iteration #  7     ecut=    44.10 Ry     beta=0.10
     Davidson diagonalization with overlap
     ethr =  1.02E-03,  avg # of iterations =  2.2

     negative rho (up, down):  5.437E-03 5.116E-03
 
     Adding external electric field

     Computed dipole along edir(3) : 
        Dipole                0.0061 Ry au,          0.0154 Debye
        Dipole field          0.0000 Ry au
 
        Potential amp.       -0.0009 Ry
        Total length         73.7482 bohr
 
 
     Adding external electric field

     Computed dipole along edir(3) : 
        Dipole                0.0061 Ry au,          0.0154 Debye
        Dipole field          0.0000 Ry au
 
        Potential amp.       -0.0009 Ry
        Total length         73.7482 bohr
 
 
     Magnetic moment per site:
     atom:    1    charge:    3.2370    magn:    1.2408    constr:    0.0000
     atom:    2    charge:    3.2370    magn:    1.2409    constr:    0.0000
     atom:    3    charge:    3.2357    magn:    1.2363    constr:    0.0000
     atom:    4    charge:    3.2184    magn:    1.2379    constr:    0.0000
     atom:    5    charge:    3.2185    magn:    1.2408    constr:    0.0000
     atom:    6    charge:    3.2184    magn:    1.2379    constr:    0.0000
     atom:    7    charge:    3.2072    magn:    1.2328    constr:    0.0000
     atom:    8    charge:    3.2071    magn:    1.2329    constr:    0.0000
     atom:    9    charge:    3.2070    magn:    1.2344    constr:    0.0000
     atom:   10    charge:    3.1970    magn:    1.2339    constr:    0.0000
     atom:   11    charge:    3.1992    magn:    1.2312    constr:    0.0000
     atom:   12    charge:    3.1970    magn:    1.2339    constr:    0.0000
     atom:   13    charge:    3.1979    magn:    1.2346    constr:    0.0000
     atom:   14    charge:    3.1979    magn:    1.2346    constr:    0.0000
     atom:   15    charge:    3.1980    magn:    1.2327    constr:    0.0000
     atom:   16    charge:    3.1962    magn:    1.2305    constr:    0.0000
     atom:   17    charge:    3.1963    magn:    1.2347    constr:    0.0000
     atom:   18    charge:    3.1962    magn:    1.2305    constr:    0.0000
     atom:   19    charge:    3.1965    magn:    1.2305    constr:    0.0000
     atom:   20    charge:    3.1965    magn:    1.2305    constr:    0.0000
     atom:   21    charge:    3.1966    magn:    1.2312    constr:    0.0000
     atom:   22    charge:    3.1978    magn:    1.2332    constr:    0.0000
     atom:   23    charge:    3.1973    magn:    1.2324    constr:    0.0000
     atom:   24    charge:    3.1978    magn:    1.2332    constr:    0.0000
     atom:   25    charge:    3.1971    magn:    1.2330    constr:    0.0000
     atom:   26    charge:    3.1971    magn:    1.2330    constr:    0.0000
     atom:   27    charge:    3.1970    magn:    1.2309    constr:    0.0000
     atom:   28    charge:    3.2063    magn:    1.2332    constr:    0.0000
     atom:   29    charge:    3.2065    magn:    1.2344    constr:    0.0000
     atom:   30    charge:    3.2063    magn:    1.2332    constr:    0.0000
     atom:   31    charge:    3.2162    magn:    1.2380    constr:    0.0000
     atom:   32    charge:    3.2162    magn:    1.2380    constr:    0.0000
     atom:   33    charge:    3.2164    magn:    1.2368    constr:    0.0000
     atom:   34    charge:    3.2363    magn:    1.2360    constr:    0.0000
     atom:   35    charge:    3.2360    magn:    1.2367    constr:    0.0000
     atom:   36    charge:    3.2363    magn:    1.2360    constr:    0.0000
     atom:   37    charge:    2.0723    magn:    0.9215    constr:    0.0000

     total cpu time spent up to now is      829.7 secs

     total energy              =   -2917.79648136 Ry
     Harris-Foulkes estimate   =   -2917.77165189 Ry
     estimated scf accuracy    <       3.01579869 Ry

     total magnetization       =    73.18 Bohr mag/cell
     absolute magnetization    =    73.60 Bohr mag/cell

     iteration #  8     ecut=    44.10 Ry     beta=0.10
     Davidson diagonalization with overlap
     ethr =  9.14E-04,  avg # of iterations =  1.0

     negative rho (up, down):  4.684E-03 5.573E-03
 
     Adding external electric field

     Computed dipole along edir(3) : 
        Dipole                0.0017 Ry au,          0.0044 Debye
        Dipole field          0.0000 Ry au
 
        Potential amp.       -0.0003 Ry
        Total length         73.7482 bohr
 
 
     Adding external electric field

     Computed dipole along edir(3) : 
        Dipole                0.0017 Ry au,          0.0044 Debye
        Dipole field          0.0000 Ry au
 
        Potential amp.       -0.0003 Ry
        Total length         73.7482 bohr
 
 
     Magnetic moment per site:
     atom:    1    charge:    3.2291    magn:    1.2069    constr:    0.0000
     atom:    2    charge:    3.2291    magn:    1.2069    constr:    0.0000
     atom:    3    charge:    3.2243    magn:    1.2038    constr:    0.0000
     atom:    4    charge:    3.2108    magn:    1.2041    constr:    0.0000
     atom:    5    charge:    3.2157    magn:    1.2036    constr:    0.0000
     atom:    6    charge:    3.2108    magn:    1.2041    constr:    0.0000
     atom:    7    charge:    3.2053    magn:    1.1910    constr:    0.0000
     atom:    8    charge:    3.2053    magn:    1.1910    constr:    0.0000
     atom:    9    charge:    3.2071    magn:    1.1936    constr:    0.0000
     atom:   10    charge:    3.1953    magn:    1.1970    constr:    0.0000
     atom:   11    charge:    3.2000    magn:    1.1916    constr:    0.0000
     atom:   12    charge:    3.1953    magn:    1.1970    constr:    0.0000
     atom:   13    charge:    3.1974    magn:    1.1969    constr:    0.0000
     atom:   14    charge:    3.1974    magn:    1.1969    constr:    0.0000
     atom:   15    charge:    3.1967    magn:    1.1951    constr:    0.0000
     atom:   16    charge:    3.1991    magn:    1.1891    constr:    0.0000
     atom:   17    charge:    3.1999    magn:    1.1936    constr:    0.0000
     atom:   18    charge:    3.1991    magn:    1.1891    constr:    0.0000
     atom:   19    charge:    3.2002    magn:    1.1886    constr:    0.0000
     atom:   20    charge:    3.2002    magn:    1.1886    constr:    0.0000
     atom:   21    charge:    3.1993    magn:    1.1901    constr:    0.0000
     atom:   22    charge:    3.1974    magn:    1.1950    constr:    0.0000
     atom:   23    charge:    3.1977    magn:    1.1934    constr:    0.0000
     atom:   24    charge:    3.1974    magn:    1.1950    constr:    0.0000
     atom:   25    charge:    3.1964    magn:    1.1952    constr:    0.0000
     atom:   26    charge:    3.1964    magn:    1.1952    constr:    0.0000
     atom:   27    charge:    3.1957    magn:    1.1926    constr:    0.0000
     atom:   28    charge:    3.2060    magn:    1.1931    constr:    0.0000
     atom:   29    charge:    3.2065    magn:    1.1942    constr:    0.0000
     atom:   30    charge:    3.2061    magn:    1.1931    constr:    0.0000
     atom:   31    charge:    3.2100    magn:    1.2027    constr:    0.0000
     atom:   32    charge:    3.2101    magn:    1.2027    constr:    0.0000
     atom:   33    charge:    3.2101    magn:    1.2016    constr:    0.0000
     atom:   34    charge:    3.2248    magn:    1.2033    constr:    0.0000
     atom:   35    charge:    3.2243    magn:    1.2041    constr:    0.0000
     atom:   36    charge:    3.2248    magn:    1.2033    constr:    0.0000
     atom:   37    charge:    2.0754    magn:    0.8279    constr:    0.0000

     total cpu time spent up to now is      923.6 secs

     total energy              =   -2918.07595203 Ry
     Harris-Foulkes estimate   =   -2917.84883529 Ry
     estimated scf accuracy    <       0.62654266 Ry

     total magnetization       =    72.31 Bohr mag/cell
     absolute magnetization    =    72.87 Bohr mag/cell

     iteration #  9     ecut=    44.10 Ry     beta=0.10
     Davidson diagonalization with overlap
     ethr =  1.90E-04,  avg # of iterations = 10.4

     negative rho (up, down):  1.033E-02 1.015E-02
 
     Adding external electric field

     Computed dipole along edir(3) : 
        Dipole                0.0640 Ry au,          0.1626 Debye
        Dipole field          0.0001 Ry au
 
        Potential amp.       -0.0093 Ry
        Total length         73.7482 bohr
 
 
     Adding external electric field

     Computed dipole along edir(3) : 
        Dipole                0.0640 Ry au,          0.1626 Debye
        Dipole field          0.0001 Ry au
 
        Potential amp.       -0.0093 Ry
        Total length         73.7482 bohr
 
 
     Magnetic moment per site:
     atom:    1    charge:    3.2246    magn:    1.1002    constr:    0.0000
     atom:    2    charge:    3.2246    magn:    1.1002    constr:    0.0000
     atom:    3    charge:    3.2258    magn:    1.0880    constr:    0.0000
     atom:    4    charge:    3.2036    magn:    1.0983    constr:    0.0000
     atom:    5    charge:    3.2058    magn:    1.1000    constr:    0.0000
     atom:    6    charge:    3.2035    magn:    1.0983    constr:    0.0000
     atom:    7    charge:    3.1970    magn:    1.0727    constr:    0.0000
     atom:    8    charge:    3.1969    magn:    1.0727    constr:    0.0000
     atom:    9    charge:    3.1979    magn:    1.0841    constr:    0.0000
     atom:   10    charge:    3.1914    magn:    1.0871    constr:    0.0000
     atom:   11    charge:    3.1954    magn:    1.0802    constr:    0.0000
     atom:   12    charge:    3.1914    magn:    1.0871    constr:    0.0000
     atom:   13    charge:    3.1955    magn:    1.0868    constr:    0.0000
     atom:   14    charge:    3.1955    magn:    1.0868    constr:    0.0000
     atom:   15    charge:    3.1969    magn:    1.0820    constr:    0.0000
     atom:   16    charge:    3.1974    magn:    1.0775    constr:    0.0000
     atom:   17    charge:    3.1976    magn:    1.0843    constr:    0.0000
     atom:   18    charge:    3.1973    magn:    1.0775    constr:    0.0000
     atom:   19    charge:    3.1961    magn:    1.0786    constr:    0.0000
     atom:   20    charge:    3.1960    magn:    1.0786    constr:    0.0000
     atom:   21    charge:    3.1969    magn:    1.0793    constr:    0.0000
     atom:   22    charge:    3.1950    magn:    1.0841    constr:    0.0000
     atom:   23    charge:    3.1939    magn:    1.0825    constr:    0.0000
     atom:   24    charge:    3.1949    magn:    1.0841    constr:    0.0000
     atom:   25    charge:    3.1912    magn:    1.0854    constr:    0.0000
     atom:   26    charge:    3.1912    magn:    1.0854    constr:    0.0000
     atom:   27    charge:    3.1913    magn:    1.0795    constr:    0.0000
     atom:   28    charge:    3.1941    magn:    1.0866    constr:    0.0000
     atom:   29    charge:    3.1936    magn:    1.0887    constr:    0.0000
     atom:   30    charge:    3.1941    magn:    1.0866    constr:    0.0000
     atom:   31    charge:    3.1999    magn:    1.0979    constr:    0.0000
     atom:   32    charge:    3.1999    magn:    1.0979    constr:    0.0000
     atom:   33    charge:    3.2004    magn:    1.0967    constr:    0.0000
     atom:   34    charge:    3.2244    magn:    1.0884    constr:    0.0000
     atom:   35    charge:    3.2242    magn:    1.0889    constr:    0.0000
     atom:   36    charge:    3.2244    magn:    1.0884    constr:    0.0000
     atom:   37    charge:    2.0851    magn:    0.5587    constr:    0.0000

     total cpu time spent up to now is     1061.9 secs

     total energy              =   -2918.52748886 Ry
     Harris-Foulkes estimate   =   -2918.10399980 Ry
     estimated scf accuracy    <       0.97518243 Ry

     total magnetization       =    70.77 Bohr mag/cell
     absolute magnetization    =    71.73 Bohr mag/cell

     iteration # 10     ecut=    44.10 Ry     beta=0.10
     Davidson diagonalization with overlap
     ethr =  1.90E-04,  avg # of iterations =  4.0

     negative rho (up, down):  1.294E-02 1.206E-02
 
     Adding external electric field

     Computed dipole along edir(3) : 
        Dipole                0.0388 Ry au,          0.0986 Debye
        Dipole field          0.0000 Ry au
 
        Potential amp.       -0.0057 Ry
        Total length         73.7482 bohr
 
 
     Adding external electric field

     Computed dipole along edir(3) : 
        Dipole                0.0388 Ry au,          0.0986 Debye
        Dipole field          0.0000 Ry au
 
        Potential amp.       -0.0057 Ry
        Total length         73.7482 bohr
 
 
     Magnetic moment per site:
     atom:    1    charge:    3.2302    magn:    1.0573    constr:    0.0000
     atom:    2    charge:    3.2302    magn:    1.0573    constr:    0.0000
     atom:    3    charge:    3.2238    magn:    1.0497    constr:    0.0000
     atom:    4    charge:    3.2024    magn:    1.0601    constr:    0.0000
     atom:    5    charge:    3.2070    magn:    1.0596    constr:    0.0000
     atom:    6    charge:    3.2024    magn:    1.0601    constr:    0.0000
     atom:    7    charge:    3.1957    magn:    1.0277    constr:    0.0000
     atom:    8    charge:    3.1957    magn:    1.0277    constr:    0.0000
     atom:    9    charge:    3.1925    magn:    1.0462    constr:    0.0000
     atom:   10    charge:    3.1900    magn:    1.0471    constr:    0.0000
     atom:   11    charge:    3.1951    magn:    1.0383    constr:    0.0000
     atom:   12    charge:    3.1900    magn:    1.0470    constr:    0.0000
     atom:   13    charge:    3.1954    magn:    1.0458    constr:    0.0000
     atom:   14    charge:    3.1954    magn:    1.0458    constr:    0.0000
     atom:   15    charge:    3.1950    magn:    1.0417    constr:    0.0000
     atom:   16    charge:    3.1944    magn:    1.0373    constr:    0.0000
     atom:   17    charge:    3.1960    magn:    1.0441    constr:    0.0000
     atom:   18    charge:    3.1944    magn:    1.0373    constr:    0.0000
     atom:   19    charge:    3.1953    magn:    1.0370    constr:    0.0000
     atom:   20    charge:    3.1954    magn:    1.0370    constr:    0.0000
     atom:   21    charge:    3.1950    magn:    1.0387    constr:    0.0000
     atom:   22    charge:    3.1955    magn:    1.0421    constr:    0.0000
     atom:   23    charge:    3.1956    magn:    1.0394    constr:    0.0000
     atom:   24    charge:    3.1955    magn:    1.0421    constr:    0.0000
     atom:   25    charge:    3.1918    magn:    1.0434    constr:    0.0000
     atom:   26    charge:    3.1918    magn:    1.0434    constr:    0.0000
     atom:   27    charge:    3.1909    magn:    1.0373    constr:    0.0000
     atom:   28    charge:    3.1932    magn:    1.0461    constr:    0.0000
     atom:   29    charge:    3.1940    magn:    1.0470    constr:    0.0000
     atom:   30    charge:    3.1932    magn:    1.0461    constr:    0.0000
     atom:   31    charge:    3.2006    magn:    1.0575    constr:    0.0000
     atom:   32    charge:    3.2006    magn:    1.0575    constr:    0.0000
     atom:   33    charge:    3.2002    magn:    1.0575    constr:    0.0000
     atom:   34    charge:    3.2238    magn:    1.0487    constr:    0.0000
     atom:   35    charge:    3.2242    magn:    1.0488    constr:    0.0000
     atom:   36    charge:    3.2238    magn:    1.0487    constr:    0.0000
     atom:   37    charge:    2.0862    magn:    0.4583    constr:    0.0000

     total cpu time spent up to now is     1168.4 secs

     total energy              =   -2918.76770610 Ry
     Harris-Foulkes estimate   =   -2918.66329433 Ry
     estimated scf accuracy    <       2.61854490 Ry

     total magnetization       =    67.37 Bohr mag/cell
     absolute magnetization    =    70.09 Bohr mag/cell

     iteration # 11     ecut=    44.10 Ry     beta=0.10
     Davidson diagonalization with overlap
     ethr =  1.90E-04,  avg # of iterations =  2.6

     negative rho (up, down):  1.736E-02 1.505E-02
 
     Adding external electric field

     Computed dipole along edir(3) : 
        Dipole                0.0266 Ry au,          0.0675 Debye
        Dipole field          0.0000 Ry au
 
        Potential amp.       -0.0039 Ry
        Total length         73.7482 bohr
 
 
     Adding external electric field

     Computed dipole along edir(3) : 
        Dipole                0.0266 Ry au,          0.0675 Debye
        Dipole field          0.0000 Ry au
 
        Potential amp.       -0.0039 Ry
        Total length         73.7482 bohr
 
 
     Magnetic moment per site:
     atom:    1    charge:    3.2294    magn:    1.0068    constr:    0.0000
     atom:    2    charge:    3.2294    magn:    1.0068    constr:    0.0000
     atom:    3    charge:    3.2230    magn:    0.9977    constr:    0.0000
     atom:    4    charge:    3.2070    magn:    1.0053    constr:    0.0000
     atom:    5    charge:    3.2116    magn:    1.0029    constr:    0.0000
     atom:    6    charge:    3.2070    magn:    1.0053    constr:    0.0000
     atom:    7    charge:    3.1996    magn:    0.9581    constr:    0.0000
     atom:    8    charge:    3.1996    magn:    0.9582    constr:    0.0000
     atom:    9    charge:    3.1978    magn:    0.9864    constr:    0.0000
     atom:   10    charge:    3.1941    magn:    0.9887    constr:    0.0000
     atom:   11    charge:    3.1974    magn:    0.9790    constr:    0.0000
     atom:   12    charge:    3.1941    magn:    0.9887    constr:    0.0000
     atom:   13    charge:    3.1961    magn:    0.9883    constr:    0.0000
     atom:   14    charge:    3.1961    magn:    0.9883    constr:    0.0000
     atom:   15    charge:    3.1966    magn:    0.9828    constr:    0.0000
     atom:   16    charge:    3.1954    magn:    0.9762    constr:    0.0000
     atom:   17    charge:    3.1957    magn:    0.9864    constr:    0.0000
     atom:   18    charge:    3.1953    magn:    0.9763    constr:    0.0000
     atom:   19    charge:    3.1960    magn:    0.9770    constr:    0.0000
     atom:   20    charge:    3.1960    magn:    0.9770    constr:    0.0000
     atom:   21    charge:    3.1961    magn:    0.9788    constr:    0.0000
     atom:   22    charge:    3.1966    magn:    0.9833    constr:    0.0000
     atom:   23    charge:    3.1964    magn:    0.9809    constr:    0.0000
     atom:   24    charge:    3.1966    magn:    0.9833    constr:    0.0000
     atom:   25    charge:    3.1946    magn:    0.9845    constr:    0.0000
     atom:   26    charge:    3.1946    magn:    0.9845    constr:    0.0000
     atom:   27    charge:    3.1939    magn:    0.9774    constr:    0.0000
     atom:   28    charge:    3.1986    magn:    0.9871    constr:    0.0000
     atom:   29    charge:    3.1992    magn:    0.9873    constr:    0.0000
     atom:   30    charge:    3.1986    magn:    0.9871    constr:    0.0000
     atom:   31    charge:    3.2048    magn:    1.0015    constr:    0.0000
     atom:   32    charge:    3.2048    magn:    1.0016    constr:    0.0000
     atom:   33    charge:    3.2049    magn:    1.0022    constr:    0.0000
     atom:   34    charge:    3.2249    magn:    0.9947    constr:    0.0000
     atom:   35    charge:    3.2242    magn:    0.9956    constr:    0.0000
     atom:   36    charge:    3.2249    magn:    0.9947    constr:    0.0000
     atom:   37    charge:    2.0783    magn:    0.3110    constr:    0.0000

     total cpu time spent up to now is     1267.9 secs

     total energy              =   -2918.79869643 Ry
     Harris-Foulkes estimate   =   -2918.79070442 Ry
     estimated scf accuracy    <       2.93742502 Ry

     total magnetization       =    66.10 Bohr mag/cell
     absolute magnetization    =    69.67 Bohr mag/cell

     iteration # 12     ecut=    44.10 Ry     beta=0.10
     Davidson diagonalization with overlap
     ethr =  1.90E-04,  avg # of iterations =  6.1

     negative rho (up, down):  1.527E-02 1.421E-02
 
     Adding external electric field

     Computed dipole along edir(3) : 
        Dipole                0.0194 Ry au,          0.0493 Debye
        Dipole field          0.0000 Ry au
 
        Potential amp.       -0.0028 Ry
        Total length         73.7482 bohr
 
 
     Adding external electric field

     Computed dipole along edir(3) : 
        Dipole                0.0194 Ry au,          0.0493 Debye
        Dipole field          0.0000 Ry au
 
        Potential amp.       -0.0028 Ry
        Total length         73.7482 bohr
 
 
     Magnetic moment per site:
     atom:    1    charge:    3.2199    magn:    1.0124    constr:    0.0000
     atom:    2    charge:    3.2199    magn:    1.0124    constr:    0.0000
     atom:    3    charge:    3.2179    magn:    0.9992    constr:    0.0000
     atom:    4    charge:    3.2064    magn:    1.0071    constr:    0.0000
     atom:    5    charge:    3.2116    magn:    1.0021    constr:    0.0000
     atom:    6    charge:    3.2064    magn:    1.0071    constr:    0.0000
     atom:    7    charge:    3.2006    magn:    0.9484    constr:    0.0000
     atom:    8    charge:    3.2006    magn:    0.9484    constr:    0.0000
     atom:    9    charge:    3.2011    magn:    0.9845    constr:    0.0000
     atom:   10    charge:    3.1986    magn:    0.9879    constr:    0.0000
     atom:   11    charge:    3.2060    magn:    0.9741    constr:    0.0000
     atom:   12    charge:    3.1986    magn:    0.9878    constr:    0.0000
     atom:   13    charge:    3.2014    magn:    0.9857    constr:    0.0000
     atom:   14    charge:    3.2014    magn:    0.9856    constr:    0.0000
     atom:   15    charge:    3.2003    magn:    0.9805    constr:    0.0000
     atom:   16    charge:    3.1992    magn:    0.9722    constr:    0.0000
     atom:   17    charge:    3.2015    magn:    0.9829    constr:    0.0000
     atom:   18    charge:    3.1992    magn:    0.9722    constr:    0.0000
     atom:   19    charge:    3.1999    magn:    0.9739    constr:    0.0000
     atom:   20    charge:    3.2000    magn:    0.9739    constr:    0.0000
     atom:   21    charge:    3.1990    magn:    0.9761    constr:    0.0000
     atom:   22    charge:    3.2005    magn:    0.9810    constr:    0.0000
     atom:   23    charge:    3.2013    magn:    0.9784    constr:    0.0000
     atom:   24    charge:    3.2006    magn:    0.9809    constr:    0.0000
     atom:   25    charge:    3.2010    magn:    0.9812    constr:    0.0000
     atom:   26    charge:    3.2010    magn:    0.9812    constr:    0.0000
     atom:   27    charge:    3.1997    magn:    0.9749    constr:    0.0000
     atom:   28    charge:    3.2007    magn:    0.9872    constr:    0.0000
     atom:   29    charge:    3.2010    magn:    0.9869    constr:    0.0000
     atom:   30    charge:    3.2007    magn:    0.9871    constr:    0.0000
     atom:   31    charge:    3.2068    magn:    1.0005    constr:    0.0000
     atom:   32    charge:    3.2068    magn:    1.0005    constr:    0.0000
     atom:   33    charge:    3.2052    magn:    1.0029    constr:    0.0000
     atom:   34    charge:    3.2148    magn:    0.9998    constr:    0.0000
     atom:   35    charge:    3.2176    magn:    0.9979    constr:    0.0000
     atom:   36    charge:    3.2148    magn:    0.9998    constr:    0.0000
     atom:   37    charge:    2.0624    magn:    0.2905    constr:    0.0000

     total cpu time spent up to now is     1386.0 secs

     total energy              =   -2918.80218565 Ry
     Harris-Foulkes estimate   =   -2918.84801464 Ry
     estimated scf accuracy    <       0.27669324 Ry

     total magnetization       =    64.21 Bohr mag/cell
     absolute magnetization    =    68.97 Bohr mag/cell

     iteration # 13     ecut=    44.10 Ry     beta=0.10
     Davidson diagonalization with overlap
     ethr =  8.38E-05,  avg # of iterations =  4.7

     negative rho (up, down):  1.566E-02 1.476E-02
 
     Adding external electric field

     Computed dipole along edir(3) : 
        Dipole                0.0167 Ry au,          0.0423 Debye
        Dipole field          0.0000 Ry au
 
        Potential amp.       -0.0024 Ry
        Total length         73.7482 bohr
 
 
     Adding external electric field

     Computed dipole along edir(3) : 
        Dipole                0.0167 Ry au,          0.0423 Debye
        Dipole field          0.0000 Ry au
 
        Potential amp.       -0.0024 Ry
        Total length         73.7482 bohr
 
 
     Magnetic moment per site:
     atom:    1    charge:    3.2218    magn:    0.9945    constr:    0.0000
     atom:    2    charge:    3.2218    magn:    0.9945    constr:    0.0000
     atom:    3    charge:    3.2163    magn:    0.9833    constr:    0.0000
     atom:    4    charge:    3.2083    magn:    0.9900    constr:    0.0000
     atom:    5    charge:    3.2129    magn:    0.9835    constr:    0.0000
     atom:    6    charge:    3.2083    magn:    0.9900    constr:    0.0000
     atom:    7    charge:    3.2017    magn:    0.9210    constr:    0.0000
     atom:    8    charge:    3.2017    magn:    0.9211    constr:    0.0000
     atom:    9    charge:    3.2016    magn:    0.9663    constr:    0.0000
     atom:   10    charge:    3.2005    magn:    0.9689    constr:    0.0000
     atom:   11    charge:    3.2054    magn:    0.9557    constr:    0.0000
     atom:   12    charge:    3.2005    magn:    0.9689    constr:    0.0000
     atom:   13    charge:    3.2020    magn:    0.9669    constr:    0.0000
     atom:   14    charge:    3.2020    magn:    0.9669    constr:    0.0000
     atom:   15    charge:    3.2021    magn:    0.9602    constr:    0.0000
     atom:   16    charge:    3.1998    magn:    0.9515    constr:    0.0000
     atom:   17    charge:    3.2006    magn:    0.9651    constr:    0.0000
     atom:   18    charge:    3.1998    magn:    0.9515    constr:    0.0000
     atom:   19    charge:    3.2003    magn:    0.9544    constr:    0.0000
     atom:   20    charge:    3.2003    magn:    0.9544    constr:    0.0000
     atom:   21    charge:    3.2005    magn:    0.9555    constr:    0.0000
     atom:   22    charge:    3.2020    magn:    0.9609    constr:    0.0000
     atom:   23    charge:    3.2017    magn:    0.9593    constr:    0.0000
     atom:   24    charge:    3.2020    magn:    0.9609    constr:    0.0000
     atom:   25    charge:    3.2018    magn:    0.9618    constr:    0.0000
     atom:   26    charge:    3.2018    magn:    0.9618    constr:    0.0000
     atom:   27    charge:    3.2016    magn:    0.9549    constr:    0.0000
     atom:   28    charge:    3.2024    magn:    0.9689    constr:    0.0000
     atom:   29    charge:    3.2022    magn:    0.9683    constr:    0.0000
     atom:   30    charge:    3.2023    magn:    0.9689    constr:    0.0000
     atom:   31    charge:    3.2074    magn:    0.9832    constr:    0.0000
     atom:   32    charge:    3.2074    magn:    0.9832    constr:    0.0000
     atom:   33    charge:    3.2075    magn:    0.9850    constr:    0.0000
     atom:   34    charge:    3.2174    magn:    0.9803    constr:    0.0000
     atom:   35    charge:    3.2170    magn:    0.9812    constr:    0.0000
     atom:   36    charge:    3.2174    magn:    0.9803    constr:    0.0000
     atom:   37    charge:    2.0555    magn:    0.2327    constr:    0.0000

     total cpu time spent up to now is     1494.7 secs

     total energy              =   -2918.83633549 Ry
     Harris-Foulkes estimate   =   -2918.83035053 Ry
     estimated scf accuracy    <       0.13520319 Ry

     total magnetization       =    63.77 Bohr mag/cell
     absolute magnetization    =    68.71 Bohr mag/cell

     iteration # 14     ecut=    44.10 Ry     beta=0.10
     Davidson diagonalization with overlap
     ethr =  4.10E-05,  avg # of iterations =  3.7

     negative rho (up, down):  1.468E-02 1.430E-02
 
     Adding external electric field

     Computed dipole along edir(3) : 
        Dipole                0.0153 Ry au,          0.0389 Debye
        Dipole field          0.0000 Ry au
 
        Potential amp.       -0.0022 Ry
        Total length         73.7482 bohr
 
 
     Adding external electric field

     Computed dipole along edir(3) : 
        Dipole                0.0153 Ry au,          0.0389 Debye
        Dipole field          0.0000 Ry au
 
        Potential amp.       -0.0022 Ry
        Total length         73.7482 bohr
 
 
     Magnetic moment per site:
     atom:    1    charge:    3.2217    magn:    0.9927    constr:    0.0000
     atom:    2    charge:    3.2217    magn:    0.9927    constr:    0.0000
     atom:    3    charge:    3.2170    magn:    0.9807    constr:    0.0000
     atom:    4    charge:    3.2085    magn:    0.9873    constr:    0.0000
     atom:    5    charge:    3.2124    magn:    0.9807    constr:    0.0000
     atom:    6    charge:    3.2085    magn:    0.9873    constr:    0.0000
     atom:    7    charge:    3.2017    magn:    0.9148    constr:    0.0000
     atom:    8    charge:    3.2017    magn:    0.9148    constr:    0.0000
     atom:    9    charge:    3.2011    magn:    0.9636    constr:    0.0000
     atom:   10    charge:    3.2005    magn:    0.9655    constr:    0.0000
     atom:   11    charge:    3.2039    magn:    0.9531    constr:    0.0000
     atom:   12    charge:    3.2005    magn:    0.9655    constr:    0.0000
     atom:   13    charge:    3.2014    magn:    0.9639    constr:    0.0000
     atom:   14    charge:    3.2014    magn:    0.9639    constr:    0.0000
     atom:   15    charge:    3.2015    magn:    0.9568    constr:    0.0000
     atom:   16    charge:    3.1994    magn:    0.9477    constr:    0.0000
     atom:   17    charge:    3.1999    magn:    0.9623    constr:    0.0000
     atom:   18    charge:    3.1994    magn:    0.9477    constr:    0.0000
     atom:   19    charge:    3.2002    magn:    0.9508    constr:    0.0000
     atom:   20    charge:    3.2002    magn:    0.9508    constr:    0.0000
     atom:   21    charge:    3.1999    magn:    0.9521    constr:    0.0000
     atom:   22    charge:    3.2014    magn:    0.9576    constr:    0.0000
     atom:   23    charge:    3.2017    magn:    0.9558    constr:    0.0000
     atom:   24    charge:    3.2014    magn:    0.9576    constr:    0.0000
     atom:   25    charge:    3.2013    magn:    0.9583    constr:    0.0000
     atom:   26    charge:    3.2013    magn:    0.9583    constr:    0.0000
     atom:   27    charge:    3.2004    magn:    0.9520    constr:    0.0000
     atom:   28    charge:    3.2022    magn:    0.9660    constr:    0.0000
     atom:   29    charge:    3.2028    magn:    0.9649    constr:    0.0000
     atom:   30    charge:    3.2022    magn:    0.9660    constr:    0.0000
     atom:   31    charge:    3.2075    magn:    0.9802    constr:    0.0000
     atom:   32    charge:    3.2075    magn:    0.9802    constr:    0.0000
     atom:   33    charge:    3.2069    magn:    0.9825    constr:    0.0000
     atom:   34    charge:    3.2173    magn:    0.9782    constr:    0.0000
     atom:   35    charge:    3.2180    magn:    0.9782    constr:    0.0000
     atom:   36    charge:    3.2173    magn:    0.9783    constr:    0.0000
     atom:   37    charge:    2.0566    magn:    0.2207    constr:    0.0000

     total cpu time spent up to now is     1597.9 secs

     total energy              =   -2918.84394835 Ry
     Harris-Foulkes estimate   =   -2918.84298176 Ry
     estimated scf accuracy    <       0.02167150 Ry

     total magnetization       =    63.11 Bohr mag/cell
     absolute magnetization    =    68.53 Bohr mag/cell

     iteration # 15     ecut=    44.10 Ry     beta=0.10
     Davidson diagonalization with overlap
     ethr =  6.57E-06,  avg # of iterations = 10.5

     negative rho (up, down):  1.369E-02 1.393E-02
 
     Adding external electric field

     Computed dipole along edir(3) : 
        Dipole                0.0144 Ry au,          0.0367 Debye
        Dipole field          0.0000 Ry au
 
        Potential amp.       -0.0021 Ry
        Total length         73.7482 bohr
 
 
     Adding external electric field

     Computed dipole along edir(3) : 
        Dipole                0.0144 Ry au,          0.0367 Debye
        Dipole field          0.0000 Ry au
 
        Potential amp.       -0.0021 Ry
        Total length         73.7482 bohr
 
 
     Magnetic moment per site:
     atom:    1    charge:    3.2220    magn:    0.9918    constr:    0.0000
     atom:    2    charge:    3.2220    magn:    0.9918    constr:    0.0000
     atom:    3    charge:    3.2175    magn:    0.9793    constr:    0.0000
     atom:    4    charge:    3.2088    magn:    0.9856    constr:    0.0000
     atom:    5    charge:    3.2127    magn:    0.9783    constr:    0.0000
     atom:    6    charge:    3.2088    magn:    0.9856    constr:    0.0000
     atom:    7    charge:    3.2011    magn:    0.9090    constr:    0.0000
     atom:    8    charge:    3.2011    magn:    0.9090    constr:    0.0000
     atom:    9    charge:    3.2016    magn:    0.9612    constr:    0.0000
     atom:   10    charge:    3.2000    magn:    0.9634    constr:    0.0000
     atom:   11    charge:    3.2040    magn:    0.9503    constr:    0.0000
     atom:   12    charge:    3.2000    magn:    0.9634    constr:    0.0000
     atom:   13    charge:    3.2010    magn:    0.9617    constr:    0.0000
     atom:   14    charge:    3.2010    magn:    0.9617    constr:    0.0000
     atom:   15    charge:    3.2010    magn:    0.9543    constr:    0.0000
     atom:   16    charge:    3.1990    magn:    0.9446    constr:    0.0000
     atom:   17    charge:    3.1998    magn:    0.9600    constr:    0.0000
     atom:   18    charge:    3.1990    magn:    0.9446    constr:    0.0000
     atom:   19    charge:    3.1997    magn:    0.9484    constr:    0.0000
     atom:   20    charge:    3.1997    magn:    0.9484    constr:    0.0000
     atom:   21    charge:    3.1995    magn:    0.9494    constr:    0.0000
     atom:   22    charge:    3.2010    magn:    0.9552    constr:    0.0000
     atom:   23    charge:    3.2010    magn:    0.9538    constr:    0.0000
     atom:   24    charge:    3.2010    magn:    0.9552    constr:    0.0000
     atom:   25    charge:    3.2009    magn:    0.9556    constr:    0.0000
     atom:   26    charge:    3.2009    magn:    0.9556    constr:    0.0000
     atom:   27    charge:    3.2004    magn:    0.9493    constr:    0.0000
     atom:   28    charge:    3.2023    magn:    0.9640    constr:    0.0000
     atom:   29    charge:    3.2023    magn:    0.9632    constr:    0.0000
     atom:   30    charge:    3.2023    magn:    0.9640    constr:    0.0000
     atom:   31    charge:    3.2078    magn:    0.9781    constr:    0.0000
     atom:   32    charge:    3.2078    magn:    0.9781    constr:    0.0000
     atom:   33    charge:    3.2076    magn:    0.9800    constr:    0.0000
     atom:   34    charge:    3.2178    magn:    0.9769    constr:    0.0000
     atom:   35    charge:    3.2178    magn:    0.9774    constr:    0.0000
     atom:   36    charge:    3.2178    magn:    0.9770    constr:    0.0000
     atom:   37    charge:    2.0570    magn:    0.2093    constr:    0.0000

     total cpu time spent up to now is     1735.8 secs

     total energy              =   -2918.84597359 Ry
     Harris-Foulkes estimate   =   -2918.84484151 Ry
     estimated scf accuracy    <       0.01147183 Ry

     total magnetization       =    62.96 Bohr mag/cell
     absolute magnetization    =    68.50 Bohr mag/cell

     iteration # 16     ecut=    44.10 Ry     beta=0.10
     Davidson diagonalization with overlap
     ethr =  3.48E-06,  avg # of iterations =  1.7

     negative rho (up, down):  1.263E-02 1.361E-02
 
     Adding external electric field

     Computed dipole along edir(3) : 
        Dipole                0.0279 Ry au,          0.0709 Debye
        Dipole field          0.0000 Ry au
 
        Potential amp.       -0.0041 Ry
        Total length         73.7482 bohr
 
 
     Adding external electric field

     Computed dipole along edir(3) : 
        Dipole                0.0279 Ry au,          0.0709 Debye
        Dipole field          0.0000 Ry au
 
        Potential amp.       -0.0041 Ry
        Total length         73.7482 bohr
 
 
     Magnetic moment per site:
     atom:    1    charge:    3.2225    magn:    0.9924    constr:    0.0000
     atom:    2    charge:    3.2225    magn:    0.9924    constr:    0.0000
     atom:    3    charge:    3.2180    magn:    0.9798    constr:    0.0000
     atom:    4    charge:    3.2091    magn:    0.9856    constr:    0.0000
     atom:    5    charge:    3.2125    magn:    0.9775    constr:    0.0000
     atom:    6    charge:    3.2091    magn:    0.9856    constr:    0.0000
     atom:    7    charge:    3.2006    magn:    0.9030    constr:    0.0000
     atom:    8    charge:    3.2006    magn:    0.9030    constr:    0.0000
     atom:    9    charge:    3.2019    magn:    0.9604    constr:    0.0000
     atom:   10    charge:    3.1998    magn:    0.9625    constr:    0.0000
     atom:   11    charge:    3.2036    magn:    0.9492    constr:    0.0000
     atom:   12    charge:    3.1998    magn:    0.9625    constr:    0.0000
     atom:   13    charge:    3.2009    magn:    0.9607    constr:    0.0000
     atom:   14    charge:    3.2009    magn:    0.9607    constr:    0.0000
     atom:   15    charge:    3.2010    magn:    0.9527    constr:    0.0000
     atom:   16    charge:    3.1989    magn:    0.9424    constr:    0.0000
     atom:   17    charge:    3.1996    magn:    0.9593    constr:    0.0000
     atom:   18    charge:    3.1989    magn:    0.9424    constr:    0.0000
     atom:   19    charge:    3.1995    magn:    0.9470    constr:    0.0000
     atom:   20    charge:    3.1995    magn:    0.9470    constr:    0.0000
     atom:   21    charge:    3.1995    magn:    0.9476    constr:    0.0000
     atom:   22    charge:    3.2008    magn:    0.9539    constr:    0.0000
     atom:   23    charge:    3.2008    magn:    0.9528    constr:    0.0000
     atom:   24    charge:    3.2008    magn:    0.9539    constr:    0.0000
     atom:   25    charge:    3.2007    magn:    0.9540    constr:    0.0000
     atom:   26    charge:    3.2007    magn:    0.9540    constr:    0.0000
     atom:   27    charge:    3.2002    magn:    0.9481    constr:    0.0000
     atom:   28    charge:    3.2024    magn:    0.9637    constr:    0.0000
     atom:   29    charge:    3.2025    magn:    0.9626    constr:    0.0000
     atom:   30    charge:    3.2024    magn:    0.9637    constr:    0.0000
     atom:   31    charge:    3.2079    magn:    0.9777    constr:    0.0000
     atom:   32    charge:    3.2079    magn:    0.9777    constr:    0.0000
     atom:   33    charge:    3.2074    magn:    0.9797    constr:    0.0000
     atom:   34    charge:    3.2185    magn:    0.9773    constr:    0.0000
     atom:   35    charge:    3.2188    magn:    0.9776    constr:    0.0000
     atom:   36    charge:    3.2185    magn:    0.9773    constr:    0.0000
     atom:   37    charge:    2.0563    magn:    0.1984    constr:    0.0000

     total cpu time spent up to now is     1832.0 secs

     total energy              =   -2918.84730938 Ry
     Harris-Foulkes estimate   =   -2918.84629751 Ry
     estimated scf accuracy    <       0.00748884 Ry

     total magnetization       =    62.86 Bohr mag/cell
     absolute magnetization    =    68.49 Bohr mag/cell

     iteration # 17     ecut=    44.10 Ry     beta=0.10
     Davidson diagonalization with overlap
     ethr =  2.27E-06,  avg # of iterations =  2.3

     negative rho (up, down):  1.176E-02 1.341E-02
 
     Adding external electric field

     Computed dipole along edir(3) : 
        Dipole               -0.0026 Ry au,         -0.0065 Debye
        Dipole field         -0.0000 Ry au
 
        Potential amp.        0.0004 Ry
        Total length         73.7482 bohr
 
 
     Adding external electric field

     Computed dipole along edir(3) : 
        Dipole               -0.0026 Ry au,         -0.0065 Debye
        Dipole field         -0.0000 Ry au
 
        Potential amp.        0.0004 Ry
        Total length         73.7482 bohr
 
 
     Magnetic moment per site:
     atom:    1    charge:    3.2230    magn:    0.9924    constr:    0.0000
     atom:    2    charge:    3.2230    magn:    0.9924    constr:    0.0000
     atom:    3    charge:    3.2186    magn:    0.9796    constr:    0.0000
     atom:    4    charge:    3.2093    magn:    0.9850    constr:    0.0000
     atom:    5    charge:    3.2124    magn:    0.9762    constr:    0.0000
     atom:    6    charge:    3.2093    magn:    0.9850    constr:    0.0000
     atom:    7    charge:    3.2004    magn:    0.8972    constr:    0.0000
     atom:    8    charge:    3.2004    magn:    0.8972    constr:    0.0000
     atom:    9    charge:    3.2021    magn:    0.9592    constr:    0.0000
     atom:   10    charge:    3.1996    magn:    0.9612    constr:    0.0000
     atom:   11    charge:    3.2034    magn:    0.9478    constr:    0.0000
     atom:   12    charge:    3.1996    magn:    0.9612    constr:    0.0000
     atom:   13    charge:    3.2006    magn:    0.9595    constr:    0.0000
     atom:   14    charge:    3.2006    magn:    0.9595    constr:    0.0000
     atom:   15    charge:    3.2008    magn:    0.9511    constr:    0.0000
     atom:   16    charge:    3.1986    magn:    0.9402    constr:    0.0000
     atom:   17    charge:    3.1993    magn:    0.9583    constr:    0.0000
     atom:   18    charge:    3.1986    magn:    0.9402    constr:    0.0000
     atom:   19    charge:    3.1992    magn:    0.9456    constr:    0.0000
     atom:   20    charge:    3.1992    magn:    0.9456    constr:    0.0000
     atom:   21    charge:    3.1993    magn:    0.9458    constr:    0.0000
     atom:   22    charge:    3.2004    magn:    0.9525    constr:    0.0000
     atom:   23    charge:    3.2003    magn:    0.9517    constr:    0.0000
     atom:   24    charge:    3.2004    magn:    0.9525    constr:    0.0000
     atom:   25    charge:    3.2003    magn:    0.9522    constr:    0.0000
     atom:   26    charge:    3.2003    magn:    0.9522    constr:    0.0000
     atom:   27    charge:    3.2000    magn:    0.9466    constr:    0.0000
     atom:   28    charge:    3.2023    magn:    0.9630    constr:    0.0000
     atom:   29    charge:    3.2025    magn:    0.9618    constr:    0.0000
     atom:   30    charge:    3.2023    magn:    0.9630    constr:    0.0000
     atom:   31    charge:    3.2078    magn:    0.9770    constr:    0.0000
     atom:   32    charge:    3.2078    magn:    0.9770    constr:    0.0000
     atom:   33    charge:    3.2073    magn:    0.9788    constr:    0.0000
     atom:   34    charge:    3.2187    magn:    0.9774    constr:    0.0000
     atom:   35    charge:    3.2191    magn:    0.9778    constr:    0.0000
     atom:   36    charge:    3.2187    magn:    0.9774    constr:    0.0000
     atom:   37    charge:    2.0563    magn:    0.1883    constr:    0.0000

     total cpu time spent up to now is     1930.8 secs

     total energy              =   -2918.84809714 Ry
     Harris-Foulkes estimate   =   -2918.84777169 Ry
     estimated scf accuracy    <       0.03714749 Ry

     total magnetization       =    62.80 Bohr mag/cell
     absolute magnetization    =    68.51 Bohr mag/cell

     iteration # 18     ecut=    44.10 Ry     beta=0.10
     Davidson diagonalization with overlap
     ethr =  2.27E-06,  avg # of iterations =  3.6

     negative rho (up, down):  1.089E-02 1.334E-02
 
     Adding external electric field

     Computed dipole along edir(3) : 
        Dipole                0.0209 Ry au,          0.0532 Debye
        Dipole field          0.0000 Ry au
 
        Potential amp.       -0.0031 Ry
        Total length         73.7482 bohr
 
 
     Adding external electric field

     Computed dipole along edir(3) : 
        Dipole                0.0209 Ry au,          0.0532 Debye
        Dipole field          0.0000 Ry au
 
        Potential amp.       -0.0031 Ry
        Total length         73.7482 bohr
 
 
     Magnetic moment per site:
     atom:    1    charge:    3.2233    magn:    0.9935    constr:    0.0000
     atom:    2    charge:    3.2233    magn:    0.9935    constr:    0.0000
     atom:    3    charge:    3.2195    magn:    0.9798    constr:    0.0000
     atom:    4    charge:    3.2099    magn:    0.9844    constr:    0.0000
     atom:    5    charge:    3.2126    magn:    0.9741    constr:    0.0000
     atom:    6    charge:    3.2099    magn:    0.9844    constr:    0.0000
     atom:    7    charge:    3.2002    magn:    0.8863    constr:    0.0000
     atom:    8    charge:    3.2002    magn:    0.8863    constr:    0.0000
     atom:    9    charge:    3.2025    magn:    0.9575    constr:    0.0000
     atom:   10    charge:    3.1992    magn:    0.9594    constr:    0.0000
     atom:   11    charge:    3.2025    magn:    0.9458    constr:    0.0000
     atom:   12    charge:    3.1992    magn:    0.9594    constr:    0.0000
     atom:   13    charge:    3.1999    magn:    0.9578    constr:    0.0000
     atom:   14    charge:    3.1999    magn:    0.9578    constr:    0.0000
     atom:   15    charge:    3.2000    magn:    0.9486    constr:    0.0000
     atom:   16    charge:    3.1980    magn:    0.9365    constr:    0.0000
     atom:   17    charge:    3.1987    magn:    0.9570    constr:    0.0000
     atom:   18    charge:    3.1980    magn:    0.9365    constr:    0.0000
[...]
    -2.2657  -2.2410  -2.2229  -2.1987  -2.1856  -2.1597  -2.1511  -2.1431
    -2.1322  -2.1088  -2.1001  -2.0900  -2.0744  -2.0610  -2.0418  -2.0323
    -2.0122  -1.9933  -1.9523  -1.9440  -1.9244  -1.9191  -1.8808  -1.8701
    -1.8438  -1.8219  -1.8057  -1.7903  -1.7805  -1.7440  -1.7206  -1.7099
    -1.6842  -1.6734  -1.6566  -1.6425  -1.6081  -1.5756  -1.5403  -1.5250
    -1.5167  -1.4892  -1.4800  -1.4677  -1.4592  -1.4499  -1.4190  -1.4049
    -1.3753  -1.3584  -1.3312  -1.3072  -1.2893  -1.2619  -1.2511  -1.1979
    -1.1181  -0.9313  -0.8142  -0.6226  -0.4751  -0.3510  -0.1475   0.1292
     0.2865   0.4436   0.5458   0.6416   0.7586   0.9940   1.3597   1.5576
     1.7890   1.8556   1.9646   2.1355   2.2177   2.3257   2.7722   2.8990
     3.1317   3.2658   3.4801   3.7705   3.9686   4.1020   4.1588   4.2170
     4.3218   4.5113   4.5285   4.7092   4.8254   4.8741   4.9587   4.9998
     5.0264   5.1306   5.2354   5.3243   5.3778   5.4000   5.4414   5.5516
     5.6504   5.6916   5.7518   5.8447   5.9978   6.0416   6.1034   6.1232
     6.1653   6.2155   6.2716   6.2970   6.4056   6.4920   6.5120   6.5578
     6.6141   6.6595   6.7607   6.8327   6.9149   6.9595   6.9944   7.0246
     7.1165

 ------ SPIN DOWN ----------


          k = 0.0000 0.0000 0.0000 ( 62705 PWs)   bands (ev):

   -19.0983  -8.9843  -7.7507  -6.5203  -6.4489  -6.0878  -5.9479  -5.7527
    -5.6675  -5.4857  -5.4383  -5.1235  -5.0871  -4.6262  -4.6001  -4.4094
    -4.3106  -4.2939  -4.2235  -4.2082  -4.1655  -4.0831  -4.0050  -3.8760
    -3.8336  -3.8221  -3.7845  -3.7051  -3.6958  -3.6337  -3.4953  -3.4952
    -3.4472  -3.4008  -3.3928  -3.3701  -3.3494  -3.3333  -3.2707  -3.1804
    -3.1429  -3.1285  -3.1159  -2.9846  -2.9344  -2.9151  -2.9066  -2.8254
    -2.8107  -2.7396  -2.6393  -2.6199  -2.5743  -2.5614  -2.5267  -2.5203
    -2.4679  -2.4637  -2.4261  -2.3961  -2.3656  -2.3505  -2.3348  -2.3006
    -2.2216  -2.2046  -2.1741  -2.1643  -2.1608  -2.1019  -2.0981  -2.0697
    -2.0390  -2.0303  -1.9871  -1.9413  -1.9336  -1.9061  -1.8713  -1.8412
    -1.8125  -1.7669  -1.7546  -1.7358  -1.6858  -1.6694  -1.6224  -1.5786
    -1.5445  -1.5288  -1.5078  -1.5046  -1.4895  -1.4731  -1.4545  -1.4449
    -1.4213  -1.3962  -1.3770  -1.3626  -1.3590  -1.3324  -1.3324  -1.3132
    -1.2883  -1.2882  -1.2753  -1.2128  -1.2116  -1.1859  -1.1278  -1.0940
    -1.0904  -1.0738  -1.0492  -1.0304  -1.0185  -0.9446  -0.9301  -0.9112
    -0.8326  -0.8263  -0.8116  -0.7773  -0.7534  -0.7266  -0.7127  -0.6651
    -0.6508  -0.6083  -0.5811  -0.5199  -0.5181  -0.5119  -0.4994  -0.4621
    -0.4005  -0.3524  -0.3182  -0.3011  -0.3010  -0.2845  -0.2476  -0.2470
    -0.2059  -0.1972  -0.1538  -0.1481  -0.1434  -0.1231  -0.1039  -0.1012
    -0.0654  -0.0473  -0.0242  -0.0125  -0.0012   0.0312   0.0428   0.0615
     0.0623   0.0653   0.0742   0.0869   0.1019   0.1171   0.1322   0.1572
     0.1860   0.2222   0.2363   0.2824   0.2858   0.2959   0.3172   0.3253
     0.3475   0.3650   0.3652   0.3831   0.4052   0.4136   0.4200   0.4448
     0.4546   0.4698   0.4809   0.5255   0.5297   0.5699   0.5882   0.6483
     0.6582   0.6906   0.8013   0.8871   1.0013   1.0308   1.0617   1.5123
     1.6164   1.6207   1.7179   1.7721   1.9020   1.9434   2.0268   2.1960
     2.3249   2.3591   2.4397   2.5536   2.8315   3.1039   3.1987   3.3339
     3.3352   3.3912   3.5617   3.6169   3.6459   3.7416   3.7806   3.8283
     4.1222   4.5354   4.6575   4.6645   4.8351   4.9571   5.1729   5.2670
     5.4223   5.5259   5.5866   5.8069   5.8445   5.8493   5.9746   6.0113
     6.0215   6.0671   6.1249   6.2349   6.3427   6.5138   6.5182   6.5274
     6.5826   6.6985   6.8660   6.8985   7.0141   7.0812   7.1071   7.1535
     7.1831   7.2240   7.2323   7.2382   7.2664   7.3950   7.4383   7.4604
     7.4679

          k = 0.0000 0.0440 0.0000 ( 62728 PWs)   bands (ev):

   -19.0982  -8.6785  -7.7971  -7.4646  -6.6738  -5.9208  -5.8360  -5.5226
    -5.4323  -5.2440  -5.0984  -5.0206  -4.8978  -4.6735  -4.5961  -4.4194
    -4.3817  -4.3622  -4.2463  -4.1738  -4.1463  -4.0243  -3.9795  -3.8765
    -3.8667  -3.8207  -3.7861  -3.7028  -3.6833  -3.6302  -3.6014  -3.5750
    -3.5181  -3.4994  -3.4845  -3.4493  -3.3869  -3.3523  -3.3253  -3.2210
    -3.1711  -3.1619  -3.0878  -3.0601  -2.9879  -2.9439  -2.8886  -2.8572
    -2.7933  -2.7536  -2.6404  -2.6167  -2.5959  -2.5776  -2.5117  -2.5046
    -2.4974  -2.4708  -2.4159  -2.4021  -2.3568  -2.3326  -2.3181  -2.2905
    -2.2564  -2.2472  -2.1936  -2.1617  -2.1433  -2.1219  -2.0829  -2.0724
    -2.0158  -1.9655  -1.9546  -1.9486  -1.9173  -1.8945  -1.8820  -1.8517
    -1.8182  -1.7858  -1.7707  -1.7602  -1.7579  -1.7315  -1.7016  -1.6736
    -1.6228  -1.6033  -1.5941  -1.5634  -1.5206  -1.5060  -1.4964  -1.4486
    -1.4232  -1.4154  -1.4042  -1.3667  -1.3464  -1.3255  -1.3093  -1.2837
    -1.2503  -1.2447  -1.2196  -1.1929  -1.1807  -1.1433  -1.1144  -1.0717
    -1.0485  -1.0443  -1.0038  -0.9807  -0.9619  -0.9391  -0.9084  -0.8952
    -0.8703  -0.8629  -0.8451  -0.8140  -0.7998  -0.7803  -0.7354  -0.7283
    -0.7108  -0.6721  -0.6502  -0.5847  -0.5789  -0.5549  -0.4939  -0.4616
    -0.4559  -0.4480  -0.4418  -0.3960  -0.3493  -0.3249  -0.3184  -0.2855
    -0.2636  -0.2450  -0.2193  -0.2083  -0.1958  -0.1632  -0.1478  -0.1247
    -0.1115  -0.0864  -0.0715  -0.0576  -0.0434  -0.0305   0.0419   0.0520
     0.0870   0.1293   0.1396   0.1702   0.1853   0.2031   0.2261   0.2611
     0.2910   0.3038   0.3070   0.3403   0.3535   0.3669   0.3929   0.3999
     0.4102   0.4146   0.4464   0.4532   0.4676   0.4714   0.4804   0.4936
     0.5247   0.5388   0.5488   0.5763   0.5868   0.6390   0.7003   0.7757
     0.7810   1.0263   1.1005   1.1336   1.1500   1.2220   1.3110   1.3204
     1.5676   1.7047   1.7271   1.7778   2.0973   2.1257   2.3469   2.4710
     2.5079   2.5901   2.6677   2.7624   2.8153   2.8658   2.9404   3.0800
     3.1153   3.4244   3.5059   3.5831   3.6400   3.6959   3.7815   3.9498
     4.0454   4.1187   4.2343   4.3482   4.3971   4.5148   4.5321   4.5616
     4.8416   4.9909   5.0269   5.2149   5.3520   5.4454   5.5201   5.7419
     5.8062   5.9430   6.0957   6.3651   6.5433   6.5841   6.6576   6.8091
     6.9451   7.0620   7.1480   7.1723   7.2827   7.3546   7.3611   7.4283
     7.4966   7.5292   7.6279   7.6394   7.7088   7.7295   7.7512   7.8119
     7.8547

          k = 0.0538 0.0000 0.0000 ( 62649 PWs)   bands (ev):

   -19.0969  -8.5328  -7.4587  -7.1486  -6.4369  -6.2063  -6.1459  -5.8237
    -5.6396  -5.6310  -5.3260  -5.2810  -5.1597  -4.9287  -4.9071  -4.7740
    -4.6029  -4.5103  -4.4184  -4.3752  -4.0699  -4.0272  -3.9825  -3.8131
    -3.7659  -3.7093  -3.6186  -3.6071  -3.5969  -3.3876  -3.3306  -3.3048
    -3.2768  -3.2715  -3.2606  -3.2434  -3.2082  -3.2078  -3.1692  -3.1386
    -3.1232  -3.0841  -3.0379  -3.0140  -3.0131  -2.9811  -2.9121  -2.8436
    -2.7885  -2.7624  -2.7293  -2.6780  -2.6591  -2.6179  -2.5640  -2.5242
    -2.4972  -2.4905  -2.4357  -2.3993  -2.3521  -2.3474  -2.3147  -2.3121
    -2.2724  -2.2305  -2.2273  -2.1522  -2.1329  -2.1169  -2.0890  -1.9950
    -1.9930  -1.9562  -1.9166  -1.8895  -1.8621  -1.8329  -1.8309  -1.7810
    -1.7383  -1.7168  -1.6860  -1.6597  -1.6247  -1.6207  -1.6055  -1.5711
    -1.5662  -1.5265  -1.5117  -1.4950  -1.4730  -1.4551  -1.4377  -1.4290
    -1.4203  -1.3989  -1.3801  -1.3722  -1.3556  -1.3496  -1.3361  -1.3265
    -1.2929  -1.2708  -1.2502  -1.2444  -1.2398  -1.2124  -1.1871  -1.1368
    -1.0777  -1.0548  -1.0343  -0.9950  -0.9755  -0.9433  -0.9312  -0.8863
    -0.8611  -0.8281  -0.8234  -0.7527  -0.7371  -0.7119  -0.6617  -0.6027
    -0.5805  -0.5540  -0.5430  -0.4696  -0.4540  -0.4127  -0.4049  -0.4045
    -0.3792  -0.3613  -0.3448  -0.3185  -0.3002  -0.2961  -0.2705  -0.2439
    -0.2401  -0.1988  -0.1804  -0.1619  -0.1399  -0.1251  -0.1169  -0.0898
    -0.0835  -0.0520  -0.0294  -0.0280  -0.0179   0.0059   0.0293   0.0499
     0.0823   0.0827   0.1048   0.1177   0.1423   0.1661   0.1764   0.1888
     0.1998   0.2295   0.2338   0.2512   0.2811   0.2891   0.3017   0.3151
     0.3203   0.3373   0.3511   0.3702   0.4062   0.4258   0.4262   0.4485
     0.4504   0.4708   0.4745   0.4923   0.5102   0.5146   0.5417   0.5574
     0.5814   0.6080   0.6240   0.6326   0.6472   0.7671   0.7825   0.8550
     0.9238   1.1100   1.1220   1.2832   1.5169   1.7456   2.0498   2.4387
     2.5454   2.6680   3.2081   3.3030   3.4243   3.6199   3.7713   3.8455
     4.0196   4.0662   4.1330   4.2114   4.2497   4.3338   4.4314   4.7203
     4.7752   4.8380   4.9142   4.9517   5.0510   5.0903   5.1063   5.2647
     5.4090   5.4701   5.5138   5.7378   5.8610   5.8824   5.9062   6.0091
     6.0407   6.1856   6.2138   6.2518   6.3220   6.4387   6.4419   6.4755
     6.4835   6.5273   6.6696   6.6997   6.7207   6.8789   6.9140   6.9831
     6.9987   7.0380   7.0395   7.1633   7.2234   7.2636   7.3781   7.4367
     7.5134

          k = 0.0538 0.0440 0.0000 ( 62686 PWs)   bands (ev):

   -19.0968  -8.2353  -7.3894  -7.1839  -6.8897  -6.4665  -6.2218  -6.1366
    -5.7283  -5.4958  -5.4019  -5.1261  -5.0238  -4.7787  -4.6156  -4.5084
    -4.4244  -4.3610  -4.3312  -4.2236  -4.1669  -4.0655  -3.9300  -3.8712
    -3.8030  -3.7759  -3.6974  -3.6777  -3.5772  -3.5430  -3.5101  -3.4928
    -3.4448  -3.4136  -3.3424  -3.3090  -3.2812  -3.2609  -3.1489  -3.0791
    -3.0360  -3.0173  -2.9938  -2.9628  -2.9563  -2.8910  -2.8664  -2.8238
    -2.7778  -2.7623  -2.7363  -2.7012  -2.6698  -2.6506  -2.5853  -2.5300
    -2.5148  -2.4684  -2.4190  -2.3770  -2.3626  -2.3415  -2.2979  -2.2667
    -2.2224  -2.2083  -2.1826  -2.1404  -2.1165  -2.0918  -2.0778  -2.0433
    -2.0151  -1.9800  -1.9608  -1.8976  -1.8888  -1.8643  -1.8377  -1.8155
    -1.7985  -1.7688  -1.7400  -1.7194  -1.6923  -1.6673  -1.6435  -1.6339
    -1.5938  -1.5777  -1.5640  -1.5443  -1.4975  -1.4763  -1.4337  -1.4270
    -1.4100  -1.3821  -1.3659  -1.3334  -1.3226  -1.3132  -1.2902  -1.2763
    -1.2514  -1.2385  -1.2048  -1.1923  -1.1660  -1.1540  -1.1415  -1.1118
    -1.0795  -1.0629  -1.0219  -1.0038  -0.9861  -0.9387  -0.9124  -0.8938
    -0.8755  -0.8702  -0.8276  -0.8194  -0.7992  -0.7658  -0.7306  -0.7187
    -0.7092  -0.6788  -0.6206  -0.5754  -0.5381  -0.5046  -0.4894  -0.4622
    -0.4520  -0.4020  -0.3804  -0.3333  -0.3293  -0.3144  -0.3045  -0.2810
    -0.2605  -0.2385  -0.1994  -0.1954  -0.1666  -0.1427  -0.1341  -0.1178
    -0.0881  -0.0640  -0.0520  -0.0201  -0.0005   0.0177   0.0304   0.0544
     0.0709   0.0900   0.1162   0.1357   0.1632   0.1932   0.2091   0.2222
     0.2460   0.2545   0.2790   0.2968   0.3181   0.3553   0.3858   0.4111
     0.4187   0.4329   0.4459   0.4622   0.4729   0.4798   0.4893   0.5031
     0.5285   0.5425   0.5561   0.5689   0.5768   0.5957   0.6087   0.6233
     0.6463   0.6885   0.7640   0.8257   0.8810   1.0445   1.1613   1.2731
     1.3314   1.4548   1.5510   1.5602   1.6491   1.8299   2.2327   2.2833
     2.5857   2.7012   2.7679   2.8784   3.0024   3.0795   3.4236   3.5171
     3.6225   3.8294   3.9158   4.0504   4.0929   4.1396   4.3523   4.5043
     4.5787   4.6840   4.7771   4.8422   4.9840   5.0086   5.0488   5.1291
     5.2078   5.3610   5.3853   5.4013   5.4934   5.5540   5.6252   5.6838
     5.7600   5.8254   5.9282   6.0533   6.0817   6.1714   6.2499   6.2793
     6.3100   6.4384   6.4946   6.5386   6.5783   6.7084   6.7592   6.8122
     6.9666   6.9780   6.9985   7.0765   7.1307   7.1785   7.2999   7.3923
     7.4612

          k = 0.0538-0.0440 0.0000 ( 62686 PWs)   bands (ev):

   -19.0968  -8.2353  -7.3894  -7.1839  -6.8897  -6.4665  -6.2218  -6.1366
    -5.7283  -5.4958  -5.4019  -5.1261  -5.0238  -4.7787  -4.6156  -4.5085
    -4.4245  -4.3610  -4.3312  -4.2236  -4.1669  -4.0655  -3.9300  -3.8712
    -3.8030  -3.7759  -3.6974  -3.6777  -3.5772  -3.5431  -3.5101  -3.4928
    -3.4448  -3.4136  -3.3425  -3.3090  -3.2812  -3.2609  -3.1489  -3.0792
    -3.0360  -3.0173  -2.9938  -2.9627  -2.9564  -2.8910  -2.8664  -2.8238
    -2.7778  -2.7623  -2.7363  -2.7012  -2.6697  -2.6506  -2.5853  -2.5300
    -2.5148  -2.4684  -2.4190  -2.3770  -2.3626  -2.3415  -2.2979  -2.2667
    -2.2224  -2.2083  -2.1827  -2.1404  -2.1165  -2.0918  -2.0778  -2.0434
    -2.0151  -1.9799  -1.9609  -1.8976  -1.8887  -1.8643  -1.8377  -1.8155
    -1.7985  -1.7687  -1.7400  -1.7194  -1.6923  -1.6673  -1.6435  -1.6339
    -1.5937  -1.5777  -1.5641  -1.5443  -1.4975  -1.4762  -1.4337  -1.4270
    -1.4100  -1.3821  -1.3659  -1.3334  -1.3226  -1.3132  -1.2902  -1.2763
    -1.2514  -1.2385  -1.2048  -1.1923  -1.1660  -1.1540  -1.1416  -1.1118
    -1.0795  -1.0629  -1.0219  -1.0037  -0.9861  -0.9388  -0.9123  -0.8938
    -0.8755  -0.8702  -0.8276  -0.8194  -0.7992  -0.7659  -0.7306  -0.7187
    -0.7093  -0.6788  -0.6206  -0.5754  -0.5381  -0.5046  -0.4895  -0.4622
    -0.4521  -0.4019  -0.3805  -0.3332  -0.3293  -0.3144  -0.3045  -0.2810
    -0.2605  -0.2385  -0.1995  -0.1954  -0.1666  -0.1428  -0.1341  -0.1178
    -0.0881  -0.0640  -0.0520  -0.0200  -0.0005   0.0177   0.0304   0.0544
     0.0710   0.0900   0.1162   0.1357   0.1632   0.1932   0.2091   0.2222
     0.2461   0.2545   0.2790   0.2967   0.3182   0.3553   0.3858   0.4111
     0.4187   0.4329   0.4459   0.4622   0.4729   0.4798   0.4893   0.5031
     0.5285   0.5425   0.5561   0.5689   0.5768   0.5957   0.6087   0.6232
     0.6464   0.6885   0.7639   0.8256   0.8810   1.0445   1.1613   1.2732
     1.3314   1.4548   1.5510   1.5602   1.6491   1.8299   2.2327   2.2833
     2.5857   2.7011   2.7679   2.8783   3.0024   3.0794   3.4236   3.5171
     3.6225   3.8293   3.9158   4.0504   4.0930   4.1397   4.3522   4.5043
     4.5788   4.6839   4.7778   4.8418   4.9819   5.0093   5.0502   5.1290
     5.2076   5.3611   5.3847   5.4022   5.4919   5.5555   5.6248   5.6835
     5.7599   5.8266   5.9273   6.0531   6.0809   6.1726   6.2499   6.2794
     6.3096   6.4390   6.4941   6.5386   6.5783   6.7083   6.7598   6.8120
     6.9662   6.9779   6.9987   7.0765   7.1307   7.1784   7.2999   7.3925
     7.4612

     the Fermi energy is    -0.5136 ev

!    total energy              =   -2918.91329853 Ry
     Harris-Foulkes estimate   =   -2918.91269337 Ry
     estimated scf accuracy    <       0.00000059 Ry

     The total energy is the sum of the following terms:

     one-electron contribution =  -62488.33495173 Ry
     hartree contribution      =   31544.83136984 Ry
     xc contribution           =   -1336.32602141 Ry
     ewald contribution        =   29361.02419850 Ry
     electric field correction =       0.00000402 Ry
     smearing contrib. (-TS)   =      -0.10789775 Ry

     total magnetization       =    62.69 Bohr mag/cell
     absolute magnetization    =    69.07 Bohr mag/cell

     convergence has been achieved in  19 iterations

     Forces acting on atoms (Ry/au):


     negative rho (up, down):  6.705E-03 1.883E-02
     atom    1 type  1   force =     0.00093713   -0.00004479   -0.00037793
     atom    2 type  1   force =     0.00093891    0.00000601   -0.00035588
     atom    3 type  1   force =    -0.00067215    0.00004204   -0.00037241
     atom    4 type  1   force =    -0.00018974    0.00004423   -0.00041566
     atom    5 type  1   force =     0.00095485   -0.00003092   -0.00039433
     atom    6 type  1   force =    -0.00018381   -0.00000904   -0.00039924
     atom    7 type  1   force =     0.00031227    0.00001722   -0.00013466
     atom    8 type  1   force =     0.00031331   -0.00003552   -0.00014467
     atom    9 type  1   force =    -0.00008979    0.00003900    0.00110094
     atom   10 type  1   force =     0.00024648   -0.00025373   -0.00042925
     atom   11 type  1   force =     0.00068965   -0.00004051   -0.00160061
     atom   12 type  1   force =     0.00024433    0.00028600   -0.00043238
     atom   13 type  1   force =    -0.00039914   -0.00031879   -0.00031044
     atom   14 type  1   force =    -0.00040988    0.00027371   -0.00032242
     atom   15 type  1   force =    -0.00011441    0.00004360   -0.00028638
     atom   16 type  1   force =     0.00000146    0.00037711    0.00073733
     atom   17 type  1   force =     0.00000611   -0.00003926    0.00035986
     atom   18 type  1   force =     0.00000816   -0.00033849    0.00073374
     atom   19 type  1   force =    -0.00091500    0.00011296   -0.00619127
     atom   20 type  1   force =    -0.00092395   -0.00012768   -0.00620803
     atom   21 type  1   force =     0.00126283    0.00001520   -0.00929379
     atom   22 type  1   force =    -0.00055723    0.00178938   -0.00859951
     atom   23 type  1   force =    -0.00263417   -0.00001336   -0.00574029
     atom   24 type  1   force =    -0.00055887   -0.00177647   -0.00860778
     atom   25 type  1   force =     0.00321031    0.00181474   -0.01473945
     atom   26 type  1   force =     0.00321111   -0.00182716   -0.01475315
     atom   27 type  1   force =     0.00411880    0.00001017   -0.01552156
     atom   28 type  1   force =     0.00128047    0.00028259   -0.00991265
     atom   29 type  1   force =     0.00108852   -0.00000965   -0.00877657
     atom   30 type  1   force =     0.00127628   -0.00027117   -0.00991850
     atom   31 type  1   force =    -0.00770479    0.00050688    0.01282392
     atom   32 type  1   force =    -0.00771087   -0.00051609    0.01282113
     atom   33 type  1   force =    -0.00823886    0.00001058    0.01293256
     atom   34 type  1   force =     0.00313343   -0.00016017    0.02677184
     atom   35 type  1   force =     0.00359911   -0.00001104    0.02777759
     atom   36 type  1   force =     0.00313702    0.00016981    0.02676770
     atom   37 type  2   force =     0.00133210   -0.00001738    0.00141220

     Total force =     0.065543     Total SCF correction =     0.002284
 !ASE

     Writing output data file calc.save
 
     init_run     :     40.88s CPU     48.49s WALL (       1 calls)
     electrons    :  30035.01s CPU  34942.42s WALL (      11 calls)
     update_pot   :     44.93s CPU     47.55s WALL (      10 calls)
     forces       :    551.30s CPU    578.61s WALL (      11 calls)

     Called by init_run:
     wfcinit      :     26.54s CPU     32.42s WALL (       1 calls)
     potinit      :      1.72s CPU      1.90s WALL (       1 calls)

     Called by electrons:
     c_bands      :  20242.77s CPU  23993.79s WALL (     325 calls)
     sum_band     :   6627.67s CPU   7521.96s WALL (     325 calls)
     v_of_rho     :    201.84s CPU    238.19s WALL (     336 calls)
     newd         :   2995.29s CPU   3215.60s WALL (     336 calls)
     mix_rho      :     46.87s CPU     57.00s WALL (     325 calls)

     Called by c_bands:
     init_us_2    :     83.63s CPU     91.91s WALL (    6620 calls)
     cegterg      :  19780.13s CPU  23508.38s WALL (    3250 calls)

     Called by *egterg:
     h_psi        :  10218.10s CPU  13134.28s WALL (   11870 calls)
     s_psi        :   1373.07s CPU   1422.72s WALL (   11870 calls)
     g_psi        :     49.30s CPU     50.70s WALL (    8610 calls)
     cdiaghg      :   3080.17s CPU   3163.07s WALL (   11760 calls)

     Called by h_psi:
     add_vuspsi   :   1389.44s CPU   1441.55s WALL (   11870 calls)

     General routines
     calbec       :   2148.75s CPU   2213.70s WALL (   15230 calls)
     fft          :    219.18s CPU    255.75s WALL (   10515 calls)
     ffts         :      2.56s CPU      3.57s WALL (    1322 calls)
     fftw         :   5400.30s CPU   8795.80s WALL ( 4627688 calls)
     interpolate  :     26.20s CPU     35.81s WALL (    1322 calls)
     davcio       :      0.03s CPU      1.35s WALL (      10 calls)
 
     Parallel routines
     fft_scatter  :   3213.42s CPU   5185.61s WALL ( 4639525 calls)
 
     PWSCF        :     8h32m CPU        9h55m WALL

 
   This run was terminated on:  23:21:26  20Apr2018            

=------------------------------------------------------------------------------=
   JOB DONE.
=------------------------------------------------------------------------------=
