  python dir          : /home/vossj/suncat/lib/python2.7/site-packages/espresso
  espresso dir        : /home/vossj/suncat/esdld/espresso-dynpy-beef/bin
  pseudo dir          : /home/alatimer/bin/psp/esp_psp_w_gbrvRu/
  ase-espresso py git : ffa2778-git



     Program PWSCF v.5.1rc2 (svn rev. ) starts on 23Mar2018 at  9: 3:20 

     This program is part of the open-source Quantum ESPRESSO suite
     for quantum simulation of materials; please cite
         "P. Giannozzi et al., J. Phys.:Condens. Matter 21 395502 (2009);
          URL http://www.quantum-espresso.org", 
     in publications or presentations arising from this work. More details at
     http://www.quantum-espresso.org/quote

     Parallel version (MPI), running on    16 processors
     R & G space division:  proc/nbgrp/npool/nimage =      16
     Reading input from pw.inp
     Message from routine read_cards :
     DEPRECATED: no units specified in CELL_PARAMETERS card

     Current dimensions of program PWSCF are:
     Max number of different atomic species (ntypx) = 10
     Max number of k-points (npk) =  40000
     Max angular momentum in pseudopotentials (lmaxx) =  3
     Presently no symmetry can be used with electric field


     IMPORTANT: XC functional enforced from input :
     Exchange-correlation      = RPBE ( 1  4 28  4 0)
     Any further DFT definition will be discarded
     Please, verify this is what you really want

               file Ni.UPF: wavefunction(s)  3D renormalized

     Subspace diagonalization in iterative solution of the eigenvalue problem:
     a serial algorithm will be used

 
     Parallelization info
     --------------------
     sticks:   dense  smooth     PW     G-vecs:    dense   smooth      PW
     Min         363     145     39               122687    31011    4299
     Max         364     146     40               122712    31054    4310
     Sum        5823    2325    627              1963319   496527   68879
 
     Generating pointlists ...
     new r_m :   0.4125 (alat units)  0.7795 (a.u.) for type    1
     new r_m :   0.4125 (alat units)  0.7795 (a.u.) for type    2


     bravais-lattice index     =            0
     lattice parameter (alat)  =       1.8897  a.u.
     unit-cell volume          =   12553.3819 (a.u.)^3
     number of atoms/cell      =           37
     number of atomic types    =            2
     number of electrons       =       366.00
     number of Kohn-Sham states=          283
     kinetic-energy cutoff     =      44.0992  Ry
     charge density cutoff     =     440.9919  Ry
     convergence threshold     =      7.3E-07
     mixing beta               =       0.1000
     number of iterations used =           10  plain     mixing
     Exchange-correlation      = RPBE ( 1  4 28  4 0)
     nstep                     =           50


     celldm(1)=   1.889726  celldm(2)=   0.000000  celldm(3)=   0.000000
     celldm(4)=   0.000000  celldm(5)=   0.000000  celldm(6)=   0.000000

     crystal axes: (cart. coord. in units of alat)
               a(1) = (   6.162925   0.000000   0.000000 )  
               a(2) = (   0.000000   7.548011   0.000000 )  
               a(3) = (   0.000000   0.000000  39.989385 )  

     reciprocal axes: (cart. coord. in units 2 pi/alat)
               b(1) = (  0.162261  0.000000  0.000000 )  
               b(2) = (  0.000000  0.132485  0.000000 )  
               b(3) = (  0.000000  0.000000  0.025007 )  


     PseudoPot. # 1 for Ni read from file:
     /home/alatimer/bin/psp/esp_psp_w_gbrvRu/Ni.UPF
     MD5 check sum: 8b2449ee0060d9c33484ccd47bb60870
     Pseudo is Ultrasoft + core correction, Zval = 10.0
     Generated using "atomic" code by A. Dal Corso  v.5.0.2 svn rev. 9415
     Using radial grid of 1195 points,  6 beta functions with: 
                l(1) =   0
                l(2) =   0
                l(3) =   1
                l(4) =   1
                l(5) =   2
                l(6) =   2
     Q(r) pseudized with 0 coefficients 


     PseudoPot. # 2 for  O read from file:
     /home/alatimer/bin/psp/esp_psp_w_gbrvRu/O.UPF
     MD5 check sum: e057bbcf3229fb5d8c36c0c92f9568b4
     Pseudo is Ultrasoft + core correction, Zval =  6.0
     Generated using "atomic" code by A. Dal Corso  v.5.0.2 svn rev. 9415
     Using radial grid of 1095 points,  4 beta functions with: 
                l(1) =   0
                l(2) =   0
                l(3) =   1
                l(4) =   1
     Q(r) pseudized with 0 coefficients 


     atomic species   valence    mass     pseudopotential
        Ni1           10.00    58.69340     Ni( 1.00)
        O1             6.00    15.99940      O( 1.00)

     Starting magnetic structure 
     atomic species   magnetization
        Ni1          0.300
        O1           0.500

     No symmetry found



   Cartesian axes

     site n.     atom                  positions (alat units)
         1           Ni1 tau(   1) = (   0.0000000   1.2580018  23.9893847  )
         2           Ni1 tau(   2) = (   0.0000000   3.7740055  23.9893847  )
         3           Ni1 tau(   3) = (   0.0000000   6.2900092  23.9893847  )
         4           Ni1 tau(   4) = (   4.1086168   0.0000000  23.2630770  )
         5           Ni1 tau(   5) = (   4.1086168   2.5160037  23.2630770  )
         6           Ni1 tau(   6) = (   4.1086168   5.0320073  23.2630770  )
         7           Ni1 tau(   7) = (   2.0543084   1.2580018  22.5367693  )
         8           Ni1 tau(   8) = (   2.0543084   3.7740055  22.5367693  )
         9           Ni1 tau(   9) = (   2.0543084   6.2900092  22.5367693  )
        10           Ni1 tau(  10) = (   0.0000000   0.0000000  21.8104616  )
        11           Ni1 tau(  11) = (   0.0000000   2.5160037  21.8104616  )
        12           Ni1 tau(  12) = (   0.0000000   5.0320073  21.8104616  )
        13           Ni1 tau(  13) = (   4.1086168   1.2580018  21.0841539  )
        14           Ni1 tau(  14) = (   4.1086168   3.7740055  21.0841539  )
        15           Ni1 tau(  15) = (   4.1086168   6.2900092  21.0841539  )
        16           Ni1 tau(  16) = (   2.0543084   0.0000000  20.3578462  )
        17           Ni1 tau(  17) = (   2.0543084   2.5160037  20.3578462  )
        18           Ni1 tau(  18) = (   2.0543084   5.0320073  20.3578462  )
        19           Ni1 tau(  19) = (   0.0000000   1.2580018  19.6315385  )
        20           Ni1 tau(  20) = (   0.0000000   3.7740055  19.6315385  )
        21           Ni1 tau(  21) = (   0.0000000   6.2900092  19.6315385  )
        22           Ni1 tau(  22) = (   4.1086168   0.0000000  18.9052308  )
        23           Ni1 tau(  23) = (   4.1086168   2.5160037  18.9052308  )
        24           Ni1 tau(  24) = (   4.1086168   5.0320073  18.9052308  )
        25           Ni1 tau(  25) = (   2.0543084   1.2580018  18.1789231  )
        26           Ni1 tau(  26) = (   2.0543084   3.7740055  18.1789231  )
        27           Ni1 tau(  27) = (   2.0543084   6.2900092  18.1789231  )
        28           Ni1 tau(  28) = (   0.0000000   0.0000000  17.4526154  )
        29           Ni1 tau(  29) = (   0.0000000   2.5160037  17.4526154  )
        30           Ni1 tau(  30) = (   0.0000000   5.0320073  17.4526154  )
        31           Ni1 tau(  31) = (   4.1086168   1.2580018  16.7263077  )
        32           Ni1 tau(  32) = (   4.1086168   3.7740055  16.7263077  )
        33           Ni1 tau(  33) = (   4.1086168   6.2900092  16.7263077  )
        34           Ni1 tau(  34) = (   2.0543084   0.0000000  16.0000000  )
        35           Ni1 tau(  35) = (   2.0543084   2.5160037  16.0000000  )
        36           Ni1 tau(  36) = (   2.0543084   5.0320073  16.0000000  )
        37           O1  tau(  37) = (   0.0000000   2.5160037  25.0893847  )

     number of k points=    10  Fermi-Dirac smearing, width (Ry)=  0.0073
                       cart. coord. in units 2pi/alat
        k(    1) = (   0.0000000   0.0000000   0.0000000), wk =   0.1111111
        k(    2) = (   0.0000000   0.0441617   0.0000000), wk =   0.2222222
        k(    3) = (   0.0540869   0.0000000   0.0000000), wk =   0.2222222
        k(    4) = (   0.0540869   0.0441617   0.0000000), wk =   0.2222222
        k(    5) = (   0.0540869  -0.0441617   0.0000000), wk =   0.2222222
        k(    6) = (   0.0000000   0.0000000   0.0000000), wk =   0.1111111
        k(    7) = (   0.0000000   0.0441617   0.0000000), wk =   0.2222222
        k(    8) = (   0.0540869   0.0000000   0.0000000), wk =   0.2222222
        k(    9) = (   0.0540869   0.0441617   0.0000000), wk =   0.2222222
        k(   10) = (   0.0540869  -0.0441617   0.0000000), wk =   0.2222222

     Dense  grid:  1963319 G-vectors     FFT dimensions: (  80,  96, 512)

     Smooth grid:   496527 G-vectors     FFT dimensions: (  50,  64, 320)

     Largest allocated arrays     est. size (Mb)     dimensions
        Kohn-Sham Wavefunctions        16.83 Mb     (    3897,  283)
        NL pseudopotentials            39.01 Mb     (    3897,  656)
        Each V/rho on FFT grid          7.50 Mb     (  245760,   2)
        Each G-vector array             0.94 Mb     (  122712)
        G-vector shells                 0.42 Mb     (   55687)
     Largest temporary arrays     est. size (Mb)     dimensions
        Auxiliary wavefunctions        67.31 Mb     (    3897, 1132)
        Each subspace H/S matrix       19.55 Mb     (    1132, 1132)
        Each <psi_i|beta_j> matrix      2.83 Mb     (     656,  283)
        Arrays for rho mixing          37.50 Mb     (  245760,   10)

     Check: negative/imaginary core charge=   -0.000002    0.000000

     Initial potential from superposition of free atoms
     Check: negative starting charge=(component1):   -0.000985
     Check: negative starting charge=(component2):   -0.000519

     starting charge  365.99096, renormalised to  366.00000

     negative rho (up, down):  9.852E-04 5.190E-04
 
     Adding external electric field

     Computed dipole along edir(3) : 
        Dipole               -0.0014 Ry au,         -0.0036 Debye
        Dipole field         -0.0000 Ry au
 
        Potential amp.        0.0002 Ry
        Total length         73.6798 bohr
 
 
     Adding external electric field

     Computed dipole along edir(3) : 
        Dipole               -0.0014 Ry au,         -0.0036 Debye
        Dipole field         -0.0000 Ry au
 
        Potential amp.        0.0002 Ry
        Total length         73.6798 bohr
 
     Starting wfc are  328 randomized atomic wfcs

     total cpu time spent up to now is       60.2 secs

     Self-consistent Calculation

     iteration #  1     ecut=    44.10 Ry     beta=0.10
     Davidson diagonalization with overlap
  python dir          : /home/vossj/suncat/lib/python2.7/site-packages/espresso
  espresso dir        : /home/vossj/suncat/esdld/espresso-dynpy-beef/bin
  pseudo dir          : /home/alatimer/bin/psp/esp_psp_w_gbrvRu/
  ase-espresso py git : ffa2778-git



     Program PWSCF v.5.1rc2 (svn rev. ) starts on 23Mar2018 at  9: 9:41 

     This program is part of the open-source Quantum ESPRESSO suite
     for quantum simulation of materials; please cite
         "P. Giannozzi et al., J. Phys.:Condens. Matter 21 395502 (2009);
          URL http://www.quantum-espresso.org", 
     in publications or presentations arising from this work. More details at
     http://www.quantum-espresso.org/quote

     Parallel version (MPI), running on    16 processors
     R & G space division:  proc/nbgrp/npool/nimage =      16
     Reading input from pw.inp
     Message from routine read_cards :
     DEPRECATED: no units specified in CELL_PARAMETERS card

     Current dimensions of program PWSCF are:
     Max number of different atomic species (ntypx) = 10
     Max number of k-points (npk) =  40000
     Max angular momentum in pseudopotentials (lmaxx) =  3
     Presently no symmetry can be used with electric field


     IMPORTANT: XC functional enforced from input :
     Exchange-correlation      = RPBE ( 1  4 28  4 0)
     Any further DFT definition will be discarded
     Please, verify this is what you really want

               file Ni.UPF: wavefunction(s)  3D renormalized

     Subspace diagonalization in iterative solution of the eigenvalue problem:
     a serial algorithm will be used

 
     Parallelization info
     --------------------
     sticks:   dense  smooth     PW     G-vecs:    dense   smooth      PW
     Min         363     145     39               122687    31011    4299
     Max         364     146     40               122712    31054    4310
     Sum        5823    2325    627              1963319   496527   68879
 
     Generating pointlists ...
     new r_m :   0.4125 (alat units)  0.7795 (a.u.) for type    1
     new r_m :   0.4125 (alat units)  0.7795 (a.u.) for type    2


     bravais-lattice index     =            0
     lattice parameter (alat)  =       1.8897  a.u.
     unit-cell volume          =   12553.3819 (a.u.)^3
     number of atoms/cell      =           37
     number of atomic types    =            2
     number of electrons       =       366.00
     number of Kohn-Sham states=          283
     kinetic-energy cutoff     =      44.0992  Ry
     charge density cutoff     =     440.9919  Ry
     convergence threshold     =      7.3E-07
     mixing beta               =       0.1000
     number of iterations used =           10  plain     mixing
     Exchange-correlation      = RPBE ( 1  4 28  4 0)
     nstep                     =           50


     celldm(1)=   1.889726  celldm(2)=   0.000000  celldm(3)=   0.000000
     celldm(4)=   0.000000  celldm(5)=   0.000000  celldm(6)=   0.000000

     crystal axes: (cart. coord. in units of alat)
               a(1) = (   6.162925   0.000000   0.000000 )  
               a(2) = (   0.000000   7.548011   0.000000 )  
               a(3) = (   0.000000   0.000000  39.989385 )  

     reciprocal axes: (cart. coord. in units 2 pi/alat)
               b(1) = (  0.162261  0.000000  0.000000 )  
               b(2) = (  0.000000  0.132485  0.000000 )  
               b(3) = (  0.000000  0.000000  0.025007 )  


     PseudoPot. # 1 for Ni read from file:
     /home/alatimer/bin/psp/esp_psp_w_gbrvRu/Ni.UPF
     MD5 check sum: 8b2449ee0060d9c33484ccd47bb60870
     Pseudo is Ultrasoft + core correction, Zval = 10.0
     Generated using "atomic" code by A. Dal Corso  v.5.0.2 svn rev. 9415
     Using radial grid of 1195 points,  6 beta functions with: 
                l(1) =   0
                l(2) =   0
                l(3) =   1
                l(4) =   1
                l(5) =   2
                l(6) =   2
     Q(r) pseudized with 0 coefficients 


     PseudoPot. # 2 for  O read from file:
     /home/alatimer/bin/psp/esp_psp_w_gbrvRu/O.UPF
     MD5 check sum: e057bbcf3229fb5d8c36c0c92f9568b4
     Pseudo is Ultrasoft + core correction, Zval =  6.0
     Generated using "atomic" code by A. Dal Corso  v.5.0.2 svn rev. 9415
     Using radial grid of 1095 points,  4 beta functions with: 
                l(1) =   0
                l(2) =   0
                l(3) =   1
                l(4) =   1
     Q(r) pseudized with 0 coefficients 


     atomic species   valence    mass     pseudopotential
        Ni1           10.00    58.69340     Ni( 1.00)
        O1             6.00    15.99940      O( 1.00)

     Starting magnetic structure 
     atomic species   magnetization
        Ni1          0.300
        O1           0.500

     No symmetry found



   Cartesian axes

     site n.     atom                  positions (alat units)
         1           Ni1 tau(   1) = (   0.0000000   1.2580018  23.9893847  )
         2           Ni1 tau(   2) = (   0.0000000   3.7740055  23.9893847  )
         3           Ni1 tau(   3) = (   0.0000000   6.2900092  23.9893847  )
         4           Ni1 tau(   4) = (   4.1086168   0.0000000  23.2630770  )
         5           Ni1 tau(   5) = (   4.1086168   2.5160037  23.2630770  )
         6           Ni1 tau(   6) = (   4.1086168   5.0320073  23.2630770  )
         7           Ni1 tau(   7) = (   2.0543084   1.2580018  22.5367693  )
         8           Ni1 tau(   8) = (   2.0543084   3.7740055  22.5367693  )
         9           Ni1 tau(   9) = (   2.0543084   6.2900092  22.5367693  )
        10           Ni1 tau(  10) = (   0.0000000   0.0000000  21.8104616  )
        11           Ni1 tau(  11) = (   0.0000000   2.5160037  21.8104616  )
        12           Ni1 tau(  12) = (   0.0000000   5.0320073  21.8104616  )
        13           Ni1 tau(  13) = (   4.1086168   1.2580018  21.0841539  )
        14           Ni1 tau(  14) = (   4.1086168   3.7740055  21.0841539  )
        15           Ni1 tau(  15) = (   4.1086168   6.2900092  21.0841539  )
        16           Ni1 tau(  16) = (   2.0543084   0.0000000  20.3578462  )
        17           Ni1 tau(  17) = (   2.0543084   2.5160037  20.3578462  )
        18           Ni1 tau(  18) = (   2.0543084   5.0320073  20.3578462  )
        19           Ni1 tau(  19) = (   0.0000000   1.2580018  19.6315385  )
        20           Ni1 tau(  20) = (   0.0000000   3.7740055  19.6315385  )
        21           Ni1 tau(  21) = (   0.0000000   6.2900092  19.6315385  )
        22           Ni1 tau(  22) = (   4.1086168   0.0000000  18.9052308  )
        23           Ni1 tau(  23) = (   4.1086168   2.5160037  18.9052308  )
        24           Ni1 tau(  24) = (   4.1086168   5.0320073  18.9052308  )
        25           Ni1 tau(  25) = (   2.0543084   1.2580018  18.1789231  )
        26           Ni1 tau(  26) = (   2.0543084   3.7740055  18.1789231  )
        27           Ni1 tau(  27) = (   2.0543084   6.2900092  18.1789231  )
        28           Ni1 tau(  28) = (   0.0000000   0.0000000  17.4526154  )
        29           Ni1 tau(  29) = (   0.0000000   2.5160037  17.4526154  )
        30           Ni1 tau(  30) = (   0.0000000   5.0320073  17.4526154  )
        31           Ni1 tau(  31) = (   4.1086168   1.2580018  16.7263077  )
        32           Ni1 tau(  32) = (   4.1086168   3.7740055  16.7263077  )
        33           Ni1 tau(  33) = (   4.1086168   6.2900092  16.7263077  )
        34           Ni1 tau(  34) = (   2.0543084   0.0000000  16.0000000  )
        35           Ni1 tau(  35) = (   2.0543084   2.5160037  16.0000000  )
        36           Ni1 tau(  36) = (   2.0543084   5.0320073  16.0000000  )
        37           O1  tau(  37) = (   0.0000000   2.5160037  25.0893847  )

     number of k points=    10  Fermi-Dirac smearing, width (Ry)=  0.0073
                       cart. coord. in units 2pi/alat
        k(    1) = (   0.0000000   0.0000000   0.0000000), wk =   0.1111111
        k(    2) = (   0.0000000   0.0441617   0.0000000), wk =   0.2222222
        k(    3) = (   0.0540869   0.0000000   0.0000000), wk =   0.2222222
        k(    4) = (   0.0540869   0.0441617   0.0000000), wk =   0.2222222
        k(    5) = (   0.0540869  -0.0441617   0.0000000), wk =   0.2222222
        k(    6) = (   0.0000000   0.0000000   0.0000000), wk =   0.1111111
        k(    7) = (   0.0000000   0.0441617   0.0000000), wk =   0.2222222
        k(    8) = (   0.0540869   0.0000000   0.0000000), wk =   0.2222222
        k(    9) = (   0.0540869   0.0441617   0.0000000), wk =   0.2222222
        k(   10) = (   0.0540869  -0.0441617   0.0000000), wk =   0.2222222

     Dense  grid:  1963319 G-vectors     FFT dimensions: (  80,  96, 512)

     Smooth grid:   496527 G-vectors     FFT dimensions: (  50,  64, 320)

     Largest allocated arrays     est. size (Mb)     dimensions
        Kohn-Sham Wavefunctions        16.83 Mb     (    3897,  283)
        NL pseudopotentials            39.01 Mb     (    3897,  656)
        Each V/rho on FFT grid          7.50 Mb     (  245760,   2)
        Each G-vector array             0.94 Mb     (  122712)
        G-vector shells                 0.42 Mb     (   55687)
     Largest temporary arrays     est. size (Mb)     dimensions
        Auxiliary wavefunctions        67.31 Mb     (    3897, 1132)
        Each subspace H/S matrix       19.55 Mb     (    1132, 1132)
        Each <psi_i|beta_j> matrix      2.83 Mb     (     656,  283)
        Arrays for rho mixing          37.50 Mb     (  245760,   10)

     Check: negative/imaginary core charge=   -0.000002    0.000000

     Initial potential from superposition of free atoms
     Check: negative starting charge=(component1):   -0.000985
     Check: negative starting charge=(component2):   -0.000519

     starting charge  365.99096, renormalised to  366.00000

     negative rho (up, down):  9.852E-04 5.190E-04
 
     Adding external electric field

     Computed dipole along edir(3) : 
        Dipole               -0.0014 Ry au,         -0.0036 Debye
        Dipole field         -0.0000 Ry au
 
        Potential amp.        0.0002 Ry
        Total length         73.6798 bohr
 
 
     Adding external electric field

     Computed dipole along edir(3) : 
        Dipole               -0.0014 Ry au,         -0.0036 Debye
        Dipole field         -0.0000 Ry au
 
        Potential amp.        0.0002 Ry
        Total length         73.6798 bohr
 
     Starting wfc are  328 randomized atomic wfcs

     total cpu time spent up to now is       60.2 secs

     Self-consistent Calculation

     iteration #  1     ecut=    44.10 Ry     beta=0.10
     Davidson diagonalization with overlap
     ethr =  1.00E-02,  avg # of iterations =  8.5

     negative rho (up, down):  9.068E-04 4.667E-04
 
     Adding external electric field

     Computed dipole along edir(3) : 
        Dipole               -0.7241 Ry au,         -1.8404 Debye
        Dipole field         -0.0007 Ry au
 
        Potential amp.        0.1068 Ry
        Total length         73.6798 bohr
 
 
     Adding external electric field

     Computed dipole along edir(3) : 
        Dipole               -0.7241 Ry au,         -1.8404 Debye
        Dipole field         -0.0007 Ry au
 
        Potential amp.        0.1068 Ry
        Total length         73.6798 bohr
 
 
     Magnetic moment per site:
     atom:    1    charge:    3.9348    magn:    1.1498    constr:    0.0000
     atom:    2    charge:    3.9348    magn:    1.1498    constr:    0.0000
     atom:    3    charge:    3.9311    magn:    1.1515    constr:    0.0000
     atom:    4    charge:    3.9521    magn:    1.1282    constr:    0.0000
     atom:    5    charge:    3.9534    magn:    1.1276    constr:    0.0000
     atom:    6    charge:    3.9521    magn:    1.1282    constr:    0.0000
     atom:    7    charge:    3.9647    magn:    1.1153    constr:    0.0000
     atom:    8    charge:    3.9647    magn:    1.1153    constr:    0.0000
     atom:    9    charge:    3.9627    magn:    1.1170    constr:    0.0000
     atom:   10    charge:    3.9725    magn:    1.1095    constr:    0.0000
     atom:   11    charge:    3.9723    magn:    1.1112    constr:    0.0000
     atom:   12    charge:    3.9725    magn:    1.1095    constr:    0.0000
     atom:   13    charge:    3.9727    magn:    1.1086    constr:    0.0000
     atom:   14    charge:    3.9727    magn:    1.1086    constr:    0.0000
     atom:   15    charge:    3.9729    magn:    1.1087    constr:    0.0000
     atom:   16    charge:    3.9742    magn:    1.1073    constr:    0.0000
     atom:   17    charge:    3.9742    magn:    1.1070    constr:    0.0000
     atom:   18    charge:    3.9742    magn:    1.1073    constr:    0.0000
     atom:   19    charge:    3.9735    magn:    1.1073    constr:    0.0000
     atom:   20    charge:    3.9735    magn:    1.1073    constr:    0.0000
     atom:   21    charge:    3.9738    magn:    1.1064    constr:    0.0000
     atom:   22    charge:    3.9728    magn:    1.1087    constr:    0.0000
     atom:   23    charge:    3.9726    magn:    1.1087    constr:    0.0000
     atom:   24    charge:    3.9728    magn:    1.1087    constr:    0.0000
     atom:   25    charge:    3.9686    magn:    1.1115    constr:    0.0000
     atom:   26    charge:    3.9686    magn:    1.1115    constr:    0.0000
     atom:   27    charge:    3.9687    magn:    1.1115    constr:    0.0000
     atom:   28    charge:    3.9609    magn:    1.1161    constr:    0.0000
     atom:   29    charge:    3.9612    magn:    1.1158    constr:    0.0000
     atom:   30    charge:    3.9609    magn:    1.1161    constr:    0.0000
     atom:   31    charge:    3.9510    magn:    1.1289    constr:    0.0000
     atom:   32    charge:    3.9510    magn:    1.1289    constr:    0.0000
     atom:   33    charge:    3.9510    magn:    1.1289    constr:    0.0000
     atom:   34    charge:    3.9278    magn:    1.1521    constr:    0.0000
     atom:   35    charge:    3.9277    magn:    1.1520    constr:    0.0000
     atom:   36    charge:    3.9278    magn:    1.1520    constr:    0.0000
     atom:   37    charge:    2.0284    magn:    0.9444    constr:    0.0000

     total cpu time spent up to now is      276.5 secs

     total energy              =   -3652.96859329 Ry
     Harris-Foulkes estimate   =   -3654.95972038 Ry
     estimated scf accuracy    <      15.78538405 Ry

     total magnetization       =    37.97 Bohr mag/cell
     absolute magnetization    =    38.01 Bohr mag/cell

     iteration #  2     ecut=    44.10 Ry     beta=0.10
     Davidson diagonalization with overlap
     ethr =  4.31E-03,  avg # of iterations =  3.4

     negative rho (up, down):  8.970E-04 5.241E-04
 
     Adding external electric field

     Computed dipole along edir(3) : 
        Dipole                0.3378 Ry au,          0.8587 Debye
        Dipole field          0.0003 Ry au
 
        Potential amp.       -0.0498 Ry
        Total length         73.6798 bohr
 
 
     Adding external electric field

     Computed dipole along edir(3) : 
        Dipole                0.3378 Ry au,          0.8587 Debye
        Dipole field          0.0003 Ry au
 
        Potential amp.       -0.0498 Ry
        Total length         73.6798 bohr
 
 
     Magnetic moment per site:
     atom:    1    charge:    3.9527    magn:    1.1263    constr:    0.0000
     atom:    2    charge:    3.9527    magn:    1.1263    constr:    0.0000
     atom:    3    charge:    3.9507    magn:    1.1265    constr:    0.0000
     atom:    4    charge:    3.9652    magn:    1.1061    constr:    0.0000
     atom:    5    charge:    3.9664    magn:    1.1056    constr:    0.0000
     atom:    6    charge:    3.9652    magn:    1.1061    constr:    0.0000
     atom:    7    charge:    3.9670    magn:    1.1008    constr:    0.0000
     atom:    8    charge:    3.9670    magn:    1.1008    constr:    0.0000
     atom:    9    charge:    3.9666    magn:    1.1011    constr:    0.0000
     atom:   10    charge:    3.9641    magn:    1.1026    constr:    0.0000
     atom:   11    charge:    3.9636    magn:    1.1047    constr:    0.0000
     atom:   12    charge:    3.9641    magn:    1.1026    constr:    0.0000
     atom:   13    charge:    3.9530    magn:    1.1114    constr:    0.0000
     atom:   14    charge:    3.9530    magn:    1.1114    constr:    0.0000
     atom:   15    charge:    3.9532    magn:    1.1116    constr:    0.0000
     atom:   16    charge:    3.9504    magn:    1.1132    constr:    0.0000
     atom:   17    charge:    3.9502    magn:    1.1131    constr:    0.0000
     atom:   18    charge:    3.9504    magn:    1.1132    constr:    0.0000
     atom:   19    charge:    3.9523    magn:    1.1112    constr:    0.0000
     atom:   20    charge:    3.9523    magn:    1.1112    constr:    0.0000
     atom:   21    charge:    3.9521    magn:    1.1104    constr:    0.0000
     atom:   22    charge:    3.9616    magn:    1.1042    constr:    0.0000
     atom:   23    charge:    3.9616    magn:    1.1040    constr:    0.0000
     atom:   24    charge:    3.9616    magn:    1.1042    constr:    0.0000
     atom:   25    charge:    3.9711    magn:    1.0957    constr:    0.0000
     atom:   26    charge:    3.9711    magn:    1.0957    constr:    0.0000
     atom:   27    charge:    3.9712    magn:    1.0957    constr:    0.0000
     atom:   28    charge:    3.9713    magn:    1.0949    constr:    0.0000
     atom:   29    charge:    3.9715    magn:    1.0947    constr:    0.0000
     atom:   30    charge:    3.9713    magn:    1.0949    constr:    0.0000
     atom:   31    charge:    3.9671    magn:    1.1051    constr:    0.0000
     atom:   32    charge:    3.9671    magn:    1.1051    constr:    0.0000
     atom:   33    charge:    3.9671    magn:    1.1051    constr:    0.0000
     atom:   34    charge:    3.9489    magn:    1.1267    constr:    0.0000
     atom:   35    charge:    3.9488    magn:    1.1267    constr:    0.0000
     atom:   36    charge:    3.9489    magn:    1.1267    constr:    0.0000
     atom:   37    charge:    2.0377    magn:    0.9275    constr:    0.0000

     total cpu time spent up to now is      413.4 secs

     total energy              =   -3652.96393540 Ry
     Harris-Foulkes estimate   =   -3657.91592828 Ry
     estimated scf accuracy    <     112.63133833 Ry

     total magnetization       =    43.10 Bohr mag/cell
     absolute magnetization    =    43.34 Bohr mag/cell

     iteration #  3     ecut=    44.10 Ry     beta=0.10
     Davidson diagonalization with overlap
     ethr =  4.31E-03,  avg # of iterations =  2.3

     negative rho (up, down):  8.990E-04 6.040E-04
 
     Adding external electric field

     Computed dipole along edir(3) : 
        Dipole               -0.6116 Ry au,         -1.5546 Debye
        Dipole field         -0.0006 Ry au
 
        Potential amp.        0.0902 Ry
        Total length         73.6798 bohr
 
 
     Adding external electric field

     Computed dipole along edir(3) : 
        Dipole               -0.6116 Ry au,         -1.5546 Debye
        Dipole field         -0.0006 Ry au
 
        Potential amp.        0.0902 Ry
        Total length         73.6798 bohr
 
 
     Magnetic moment per site:
     atom:    1    charge:    3.9585    magn:    1.1172    constr:    0.0000
     atom:    2    charge:    3.9585    magn:    1.1172    constr:    0.0000
     atom:    3    charge:    3.9583    magn:    1.1158    constr:    0.0000
     atom:    4    charge:    3.9701    magn:    1.0966    constr:    0.0000
     atom:    5    charge:    3.9712    magn:    1.0962    constr:    0.0000
     atom:    6    charge:    3.9701    magn:    1.0966    constr:    0.0000
     atom:    7    charge:    3.9698    magn:    1.0928    constr:    0.0000
     atom:    8    charge:    3.9698    magn:    1.0928    constr:    0.0000
     atom:    9    charge:    3.9698    magn:    1.0928    constr:    0.0000
     atom:   10    charge:    3.9660    magn:    1.0951    constr:    0.0000
     atom:   11    charge:    3.9656    magn:    1.0972    constr:    0.0000
     atom:   12    charge:    3.9660    magn:    1.0951    constr:    0.0000
     atom:   13    charge:    3.9548    magn:    1.1044    constr:    0.0000
     atom:   14    charge:    3.9548    magn:    1.1044    constr:    0.0000
     atom:   15    charge:    3.9551    magn:    1.1045    constr:    0.0000
     atom:   16    charge:    3.9514    magn:    1.1070    constr:    0.0000
     atom:   17    charge:    3.9511    magn:    1.1069    constr:    0.0000
     atom:   18    charge:    3.9514    magn:    1.1070    constr:    0.0000
     atom:   19    charge:    3.9517    magn:    1.1064    constr:    0.0000
     atom:   20    charge:    3.9517    magn:    1.1064    constr:    0.0000
     atom:   21    charge:    3.9516    magn:    1.1054    constr:    0.0000
     atom:   22    charge:    3.9582    magn:    1.1016    constr:    0.0000
     atom:   23    charge:    3.9582    magn:    1.1014    constr:    0.0000
     atom:   24    charge:    3.9582    magn:    1.1016    constr:    0.0000
     atom:   25    charge:    3.9654    magn:    1.0947    constr:    0.0000
     atom:   26    charge:    3.9654    magn:    1.0947    constr:    0.0000
     atom:   27    charge:    3.9655    magn:    1.0947    constr:    0.0000
     atom:   28    charge:    3.9652    magn:    1.0948    constr:    0.0000
     atom:   29    charge:    3.9654    magn:    1.0946    constr:    0.0000
     atom:   30    charge:    3.9652    magn:    1.0948    constr:    0.0000
     atom:   31    charge:    3.9649    magn:    1.1021    constr:    0.0000
     atom:   32    charge:    3.9649    magn:    1.1021    constr:    0.0000
     atom:   33    charge:    3.9649    magn:    1.1021    constr:    0.0000
     atom:   34    charge:    3.9538    magn:    1.1183    constr:    0.0000
     atom:   35    charge:    3.9538    magn:    1.1182    constr:    0.0000
     atom:   36    charge:    3.9538    magn:    1.1183    constr:    0.0000
     atom:   37    charge:    2.0405    magn:    0.9209    constr:    0.0000

     total cpu time spent up to now is      541.8 secs

     total energy              =   -3654.12485560 Ry
     Harris-Foulkes estimate   =   -3655.58402183 Ry
     estimated scf accuracy    <      88.69747542 Ry

     total magnetization       =    38.77 Bohr mag/cell
     absolute magnetization    =    38.98 Bohr mag/cell

     iteration #  4     ecut=    44.10 Ry     beta=0.10
     Davidson diagonalization with overlap
     ethr =  4.31E-03,  avg # of iterations =  1.0

     negative rho (up, down):  9.033E-04 6.552E-04
 
     Adding external electric field

     Computed dipole along edir(3) : 
        Dipole               -0.1550 Ry au,         -0.3940 Debye
        Dipole field         -0.0002 Ry au
 
        Potential amp.        0.0229 Ry
        Total length         73.6798 bohr
 
 
     Adding external electric field

     Computed dipole along edir(3) : 
        Dipole               -0.1550 Ry au,         -0.3940 Debye
        Dipole field         -0.0002 Ry au
 
        Potential amp.        0.0229 Ry
        Total length         73.6798 bohr
 
 
     Magnetic moment per site:
     atom:    1    charge:    3.9636    magn:    1.1001    constr:    0.0000
     atom:    2    charge:    3.9636    magn:    1.1001    constr:    0.0000
     atom:    3    charge:    3.9693    magn:    1.0940    constr:    0.0000
     atom:    4    charge:    3.9664    magn:    1.0855    constr:    0.0000
     atom:    5    charge:    3.9657    magn:    1.0868    constr:    0.0000
     atom:    6    charge:    3.9664    magn:    1.0855    constr:    0.0000
     atom:    7    charge:    3.9635    magn:    1.0829    constr:    0.0000
     atom:    8    charge:    3.9635    magn:    1.0829    constr:    0.0000
     atom:    9    charge:    3.9639    magn:    1.0825    constr:    0.0000
     atom:   10    charge:    3.9640    magn:    1.0805    constr:    0.0000
     atom:   11    charge:    3.9637    magn:    1.0831    constr:    0.0000
     atom:   12    charge:    3.9640    magn:    1.0806    constr:    0.0000
     atom:   13    charge:    3.9594    magn:    1.0855    constr:    0.0000
     atom:   14    charge:    3.9594    magn:    1.0855    constr:    0.0000
     atom:   15    charge:    3.9598    magn:    1.0856    constr:    0.0000
     atom:   16    charge:    3.9580    magn:    1.0868    constr:    0.0000
     atom:   17    charge:    3.9579    magn:    1.0865    constr:    0.0000
     atom:   18    charge:    3.9580    magn:    1.0868    constr:    0.0000
     atom:   19    charge:    3.9571    magn:    1.0870    constr:    0.0000
     atom:   20    charge:    3.9571    magn:    1.0870    constr:    0.0000
     atom:   21    charge:    3.9572    magn:    1.0858    constr:    0.0000
     atom:   22    charge:    3.9582    magn:    1.0861    constr:    0.0000
     atom:   23    charge:    3.9581    magn:    1.0860    constr:    0.0000
     atom:   24    charge:    3.9582    magn:    1.0861    constr:    0.0000
     atom:   25    charge:    3.9593    magn:    1.0834    constr:    0.0000
     atom:   26    charge:    3.9593    magn:    1.0834    constr:    0.0000
     atom:   27    charge:    3.9594    magn:    1.0834    constr:    0.0000
     atom:   28    charge:    3.9597    magn:    1.0837    constr:    0.0000
     atom:   29    charge:    3.9597    magn:    1.0837    constr:    0.0000
     atom:   30    charge:    3.9597    magn:    1.0837    constr:    0.0000
     atom:   31    charge:    3.9678    magn:    1.0848    constr:    0.0000
     atom:   32    charge:    3.9678    magn:    1.0848    constr:    0.0000
     atom:   33    charge:    3.9678    magn:    1.0848    constr:    0.0000
     atom:   34    charge:    3.9701    magn:    1.0916    constr:    0.0000
     atom:   35    charge:    3.9701    magn:    1.0916    constr:    0.0000
     atom:   36    charge:    3.9701    magn:    1.0916    constr:    0.0000
     atom:   37    charge:    2.0450    magn:    0.9045    constr:    0.0000

     total cpu time spent up to now is      663.9 secs

     total energy              =   -3654.71032607 Ry
     Harris-Foulkes estimate   =   -3655.30453205 Ry
     estimated scf accuracy    <      55.35873512 Ry

     total magnetization       =    38.57 Bohr mag/cell
     absolute magnetization    =    38.66 Bohr mag/cell

     iteration #  5     ecut=    44.10 Ry     beta=0.10
     Davidson diagonalization with overlap
     ethr =  4.31E-03,  avg # of iterations =  1.0

     negative rho (up, down):  8.868E-04 5.822E-04
 
     Adding external electric field

     Computed dipole along edir(3) : 
        Dipole               -0.3113 Ry au,         -0.7912 Debye
        Dipole field         -0.0003 Ry au
 
        Potential amp.        0.0459 Ry
        Total length         73.6798 bohr
 
 
     Adding external electric field

     Computed dipole along edir(3) : 
        Dipole               -0.3113 Ry au,         -0.7912 Debye
        Dipole field         -0.0003 Ry au
 
        Potential amp.        0.0459 Ry
        Total length         73.6798 bohr
 
 
     Magnetic moment per site:
     atom:    1    charge:    3.9822    magn:    1.0045    constr:    0.0000
     atom:    2    charge:    3.9822    magn:    1.0045    constr:    0.0000
     atom:    3    charge:    4.0125    magn:    0.9767    constr:    0.0000
     atom:    4    charge:    3.9802    magn:    0.9888    constr:    0.0000
     atom:    5    charge:    3.9849    magn:    0.9873    constr:    0.0000
     atom:    6    charge:    3.9801    magn:    0.9888    constr:    0.0000
     atom:    7    charge:    3.9682    magn:    0.9920    constr:    0.0000
     atom:    8    charge:    3.9682    magn:    0.9920    constr:    0.0000
     atom:    9    charge:    3.9656    magn:    0.9932    constr:    0.0000
     atom:   10    charge:    3.9511    magn:    0.9983    constr:    0.0000
     atom:   11    charge:    3.9553    magn:    1.0004    constr:    0.0000
     atom:   12    charge:    3.9511    magn:    0.9983    constr:    0.0000
     atom:   13    charge:    3.9594    magn:    0.9967    constr:    0.0000
     atom:   14    charge:    3.9594    magn:    0.9967    constr:    0.0000
     atom:   15    charge:    3.9570    magn:    1.0000    constr:    0.0000
     atom:   16    charge:    3.9617    magn:    0.9965    constr:    0.0000
     atom:   17    charge:    3.9633    magn:    0.9944    constr:    0.0000
     atom:   18    charge:    3.9617    magn:    0.9965    constr:    0.0000
     atom:   19    charge:    3.9631    magn:    0.9948    constr:    0.0000
     atom:   20    charge:    3.9631    magn:    0.9948    constr:    0.0000
     atom:   21    charge:    3.9614    magn:    0.9937    constr:    0.0000
     atom:   22    charge:    3.9597    magn:    0.9968    constr:    0.0000
     atom:   23    charge:    3.9603    magn:    0.9960    constr:    0.0000
     atom:   24    charge:    3.9597    magn:    0.9968    constr:    0.0000
     atom:   25    charge:    3.9560    magn:    0.9962    constr:    0.0000
     atom:   26    charge:    3.9561    magn:    0.9962    constr:    0.0000
     atom:   27    charge:    3.9556    magn:    0.9969    constr:    0.0000
     atom:   28    charge:    3.9721    magn:    0.9859    constr:    0.0000
     atom:   29    charge:    3.9728    magn:    0.9854    constr:    0.0000
     atom:   30    charge:    3.9721    magn:    0.9859    constr:    0.0000
     atom:   31    charge:    3.9728    magn:    0.9938    constr:    0.0000
     atom:   32    charge:    3.9728    magn:    0.9938    constr:    0.0000
     atom:   33    charge:    3.9724    magn:    0.9939    constr:    0.0000
     atom:   34    charge:    4.0067    magn:    0.9769    constr:    0.0000
     atom:   35    charge:    4.0068    magn:    0.9767    constr:    0.0000
     atom:   36    charge:    4.0067    magn:    0.9769    constr:    0.0000
     atom:   37    charge:    2.0638    magn:    0.8129    constr:    0.0000

     total cpu time spent up to now is      786.2 secs

     total energy              =   -3655.15456527 Ry
     Harris-Foulkes estimate   =   -3654.99396027 Ry
     estimated scf accuracy    <       3.20711645 Ry

     total magnetization       =    38.06 Bohr mag/cell
     absolute magnetization    =    38.20 Bohr mag/cell

     iteration #  6     ecut=    44.10 Ry     beta=0.10
     Davidson diagonalization with overlap
     ethr =  8.76E-04,  avg # of iterations =  6.1

     negative rho (up, down):  8.780E-04 5.431E-04
 
     Adding external electric field

     Computed dipole along edir(3) : 
        Dipole               -0.3987 Ry au,         -1.0133 Debye
        Dipole field         -0.0004 Ry au
 
        Potential amp.        0.0588 Ry
        Total length         73.6798 bohr
 
 
     Adding external electric field

     Computed dipole along edir(3) : 
        Dipole               -0.3987 Ry au,         -1.0133 Debye
        Dipole field         -0.0004 Ry au
 
        Potential amp.        0.0588 Ry
        Total length         73.6798 bohr
 
 
     Magnetic moment per site:
     atom:    1    charge:    3.9968    magn:    0.9319    constr:    0.0000
     atom:    2    charge:    3.9968    magn:    0.9319    constr:    0.0000
     atom:    3    charge:    4.0041    magn:    0.9242    constr:    0.0000
     atom:    4    charge:    3.9857    magn:    0.9202    constr:    0.0000
     atom:    5    charge:    3.9858    magn:    0.9236    constr:    0.0000
     atom:    6    charge:    3.9857    magn:    0.9202    constr:    0.0000
     atom:    7    charge:    3.9729    magn:    0.9222    constr:    0.0000
     atom:    8    charge:    3.9729    magn:    0.9222    constr:    0.0000
     atom:    9    charge:    3.9714    magn:    0.9224    constr:    0.0000
     atom:   10    charge:    3.9558    magn:    0.9262    constr:    0.0000
     atom:   11    charge:    3.9600    magn:    0.9298    constr:    0.0000
     atom:   12    charge:    3.9558    magn:    0.9262    constr:    0.0000
     atom:   13    charge:    3.9624    magn:    0.9276    constr:    0.0000
     atom:   14    charge:    3.9624    magn:    0.9276    constr:    0.0000
     atom:   15    charge:    3.9621    magn:    0.9297    constr:    0.0000
     atom:   16    charge:    3.9646    magn:    0.9276    constr:    0.0000
     atom:   17    charge:    3.9641    magn:    0.9269    constr:    0.0000
     atom:   18    charge:    3.9646    magn:    0.9276    constr:    0.0000
     atom:   19    charge:    3.9627    magn:    0.9286    constr:    0.0000
     atom:   20    charge:    3.9627    magn:    0.9286    constr:    0.0000
     atom:   21    charge:    3.9630    magn:    0.9249    constr:    0.0000
     atom:   22    charge:    3.9626    magn:    0.9274    constr:    0.0000
     atom:   23    charge:    3.9618    magn:    0.9276    constr:    0.0000
     atom:   24    charge:    3.9626    magn:    0.9274    constr:    0.0000
     atom:   25    charge:    3.9566    magn:    0.9282    constr:    0.0000
     atom:   26    charge:    3.9566    magn:    0.9282    constr:    0.0000
     atom:   27    charge:    3.9570    magn:    0.9284    constr:    0.0000
     atom:   28    charge:    3.9725    magn:    0.9188    constr:    0.0000
     atom:   29    charge:    3.9715    magn:    0.9198    constr:    0.0000
     atom:   30    charge:    3.9725    magn:    0.9188    constr:    0.0000
     atom:   31    charge:    3.9887    magn:    0.9166    constr:    0.0000
     atom:   32    charge:    3.9887    magn:    0.9166    constr:    0.0000
     atom:   33    charge:    3.9890    magn:    0.9158    constr:    0.0000
     atom:   34    charge:    4.0120    magn:    0.9113    constr:    0.0000
     atom:   35    charge:    4.0112    magn:    0.9118    constr:    0.0000
     atom:   36    charge:    4.0120    magn:    0.9113    constr:    0.0000
     atom:   37    charge:    2.0804    magn:    0.7414    constr:    0.0000

     total cpu time spent up to now is      934.5 secs

     total energy              =   -3655.55241768 Ry
     Harris-Foulkes estimate   =   -3655.55158432 Ry
     estimated scf accuracy    <      17.58092981 Ry

     total magnetization       =    37.63 Bohr mag/cell
     absolute magnetization    =    37.94 Bohr mag/cell

     iteration #  7     ecut=    44.10 Ry     beta=0.10
     Davidson diagonalization with overlap
     ethr =  8.76E-04,  avg # of iterations =  4.3

     negative rho (up, down):  8.722E-04 5.514E-04
 
     Adding external electric field

     Computed dipole along edir(3) : 
        Dipole               -0.4162 Ry au,         -1.0578 Debye
        Dipole field         -0.0004 Ry au
 
        Potential amp.        0.0614 Ry
        Total length         73.6798 bohr
 
 
     Adding external electric field

     Computed dipole along edir(3) : 
        Dipole               -0.4162 Ry au,         -1.0578 Debye
        Dipole field         -0.0004 Ry au
 
        Potential amp.        0.0614 Ry
        Total length         73.6798 bohr
 
 
     Magnetic moment per site:
     atom:    1    charge:    3.9870    magn:    0.9166    constr:    0.0000
     atom:    2    charge:    3.9870    magn:    0.9166    constr:    0.0000
     atom:    3    charge:    4.0080    magn:    0.9001    constr:    0.0000
     atom:    4    charge:    3.9830    magn:    0.9008    constr:    0.0000
     atom:    5    charge:    3.9822    magn:    0.9057    constr:    0.0000
     atom:    6    charge:    3.9830    magn:    0.9008    constr:    0.0000
     atom:    7    charge:    3.9727    magn:    0.9005    constr:    0.0000
     atom:    8    charge:    3.9727    magn:    0.9005    constr:    0.0000
     atom:    9    charge:    3.9743    magn:    0.8980    constr:    0.0000
     atom:   10    charge:    3.9635    magn:    0.8985    constr:    0.0000
     atom:   11    charge:    3.9644    magn:    0.9051    constr:    0.0000
     atom:   12    charge:    3.9635    magn:    0.8985    constr:    0.0000
     atom:   13    charge:    3.9632    magn:    0.9051    constr:    0.0000
     atom:   14    charge:    3.9632    magn:    0.9051    constr:    0.0000
     atom:   15    charge:    3.9638    magn:    0.9068    constr:    0.0000
     atom:   16    charge:    3.9635    magn:    0.9064    constr:    0.0000
     atom:   17    charge:    3.9631    magn:    0.9058    constr:    0.0000
     atom:   18    charge:    3.9635    magn:    0.9064    constr:    0.0000
     atom:   19    charge:    3.9626    magn:    0.9068    constr:    0.0000
     atom:   20    charge:    3.9626    magn:    0.9068    constr:    0.0000
     atom:   21    charge:    3.9628    magn:    0.9028    constr:    0.0000
     atom:   22    charge:    3.9625    magn:    0.9055    constr:    0.0000
     atom:   23    charge:    3.9625    magn:    0.9051    constr:    0.0000
     atom:   24    charge:    3.9625    magn:    0.9055    constr:    0.0000
     atom:   25    charge:    3.9619    magn:    0.9024    constr:    0.0000
     atom:   26    charge:    3.9619    magn:    0.9024    constr:    0.0000
     atom:   27    charge:    3.9618    magn:    0.9030    constr:    0.0000
     atom:   28    charge:    3.9723    magn:    0.8966    constr:    0.0000
     atom:   29    charge:    3.9724    magn:    0.8968    constr:    0.0000
     atom:   30    charge:    3.9723    magn:    0.8966    constr:    0.0000
     atom:   31    charge:    3.9839    magn:    0.8987    constr:    0.0000
     atom:   32    charge:    3.9839    magn:    0.8987    constr:    0.0000
     atom:   33    charge:    3.9835    magn:    0.8984    constr:    0.0000
     atom:   34    charge:    4.0043    magn:    0.8965    constr:    0.0000
     atom:   35    charge:    4.0051    magn:    0.8956    constr:    0.0000
     atom:   36    charge:    4.0043    magn:    0.8965    constr:    0.0000
     atom:   37    charge:    2.0836    magn:    0.7169    constr:    0.0000

     total cpu time spent up to now is     1073.6 secs

     total energy              =   -3655.62827404 Ry
     Harris-Foulkes estimate   =   -3655.70715907 Ry
     estimated scf accuracy    <       8.09299499 Ry

     total magnetization       =    36.39 Bohr mag/cell
     absolute magnetization    =    37.06 Bohr mag/cell

     iteration #  8     ecut=    44.10 Ry     beta=0.10
     Davidson diagonalization with overlap
     ethr =  8.76E-04,  avg # of iterations =  1.5

     negative rho (up, down):  8.673E-04 5.617E-04
 
     Adding external electric field

     Computed dipole along edir(3) : 
        Dipole               -0.3129 Ry au,         -0.7952 Debye
        Dipole field         -0.0003 Ry au
 
        Potential amp.        0.0462 Ry
        Total length         73.6798 bohr
 
 
     Adding external electric field

     Computed dipole along edir(3) : 
        Dipole               -0.3129 Ry au,         -0.7952 Debye
        Dipole field         -0.0003 Ry au
 
        Potential amp.        0.0462 Ry
        Total length         73.6798 bohr
 
 
     Magnetic moment per site:
     atom:    1    charge:    3.9821    magn:    0.8940    constr:    0.0000
     atom:    2    charge:    3.9821    magn:    0.8940    constr:    0.0000
     atom:    3    charge:    3.9969    magn:    0.8838    constr:    0.0000
     atom:    4    charge:    3.9811    magn:    0.8772    constr:    0.0000
     atom:    5    charge:    3.9871    magn:    0.8772    constr:    0.0000
     atom:    6    charge:    3.9811    magn:    0.8772    constr:    0.0000
     atom:    7    charge:    3.9747    magn:    0.8738    constr:    0.0000
     atom:    8    charge:    3.9747    magn:    0.8738    constr:    0.0000
     atom:    9    charge:    3.9717    magn:    0.8745    constr:    0.0000
     atom:   10    charge:    3.9639    magn:    0.8730    constr:    0.0000
     atom:   11    charge:    3.9670    magn:    0.8784    constr:    0.0000
     atom:   12    charge:    3.9639    magn:    0.8730    constr:    0.0000
     atom:   13    charge:    3.9645    magn:    0.8794    constr:    0.0000
     atom:   14    charge:    3.9645    magn:    0.8794    constr:    0.0000
     atom:   15    charge:    3.9631    magn:    0.8829    constr:    0.0000
     atom:   16    charge:    3.9631    magn:    0.8822    constr:    0.0000
     atom:   17    charge:    3.9643    magn:    0.8803    constr:    0.0000
     atom:   18    charge:    3.9631    magn:    0.8822    constr:    0.0000
     atom:   19    charge:    3.9634    magn:    0.8817    constr:    0.0000
     atom:   20    charge:    3.9634    magn:    0.8817    constr:    0.0000
     atom:   21    charge:    3.9623    magn:    0.8781    constr:    0.0000
     atom:   22    charge:    3.9630    magn:    0.8805    constr:    0.0000
     atom:   23    charge:    3.9634    magn:    0.8798    constr:    0.0000
     atom:   24    charge:    3.9630    magn:    0.8805    constr:    0.0000
     atom:   25    charge:    3.9621    magn:    0.8776    constr:    0.0000
     atom:   26    charge:    3.9621    magn:    0.8776    constr:    0.0000
     atom:   27    charge:    3.9620    magn:    0.8784    constr:    0.0000
     atom:   28    charge:    3.9701    magn:    0.8728    constr:    0.0000
     atom:   29    charge:    3.9701    magn:    0.8732    constr:    0.0000
     atom:   30    charge:    3.9701    magn:    0.8728    constr:    0.0000
     atom:   31    charge:    3.9783    magn:    0.8777    constr:    0.0000
     atom:   32    charge:    3.9783    magn:    0.8777    constr:    0.0000
     atom:   33    charge:    3.9788    magn:    0.8766    constr:    0.0000
     atom:   34    charge:    4.0024    magn:    0.8716    constr:    0.0000
     atom:   35    charge:    4.0012    magn:    0.8722    constr:    0.0000
     atom:   36    charge:    4.0024    magn:    0.8716    constr:    0.0000
     atom:   37    charge:    2.0842    magn:    0.6899    constr:    0.0000

     total cpu time spent up to now is     1197.7 secs

     total energy              =   -3655.75346509 Ry
     Harris-Foulkes estimate   =   -3655.70023409 Ry
     estimated scf accuracy    <       1.46503525 Ry

     total magnetization       =    35.84 Bohr mag/cell
     absolute magnetization    =    36.69 Bohr mag/cell

     iteration #  9     ecut=    44.10 Ry     beta=0.10
     Davidson diagonalization with overlap
     ethr =  4.00E-04,  avg # of iterations =  5.7

     negative rho (up, down):  8.628E-04 5.630E-04
 
     Adding external electric field

     Computed dipole along edir(3) : 
        Dipole               -0.2800 Ry au,         -0.7117 Debye
        Dipole field         -0.0003 Ry au
 
        Potential amp.        0.0413 Ry
        Total length         73.6798 bohr
 
 
     Adding external electric field

     Computed dipole along edir(3) : 
        Dipole               -0.2800 Ry au,         -0.7117 Debye
        Dipole field         -0.0003 Ry au
 
        Potential amp.        0.0413 Ry
        Total length         73.6798 bohr
 
 
     Magnetic moment per site:
     atom:    1    charge:    3.9707    magn:    0.7835    constr:    0.0000
     atom:    2    charge:    3.9707    magn:    0.7835    constr:    0.0000
     atom:    3    charge:    3.9877    magn:    0.7741    constr:    0.0000
     atom:    4    charge:    3.9751    magn:    0.7664    constr:    0.0000
     atom:    5    charge:    3.9800    magn:    0.7698    constr:    0.0000
     atom:    6    charge:    3.9751    magn:    0.7664    constr:    0.0000
     atom:    7    charge:    3.9690    magn:    0.7622    constr:    0.0000
     atom:    8    charge:    3.9690    magn:    0.7622    constr:    0.0000
     atom:    9    charge:    3.9669    magn:    0.7605    constr:    0.0000
     atom:   10    charge:    3.9656    magn:    0.7546    constr:    0.0000
     atom:   11    charge:    3.9656    magn:    0.7662    constr:    0.0000
     atom:   12    charge:    3.9656    magn:    0.7546    constr:    0.0000
     atom:   13    charge:    3.9638    magn:    0.7659    constr:    0.0000
     atom:   14    charge:    3.9638    magn:    0.7659    constr:    0.0000
     atom:   15    charge:    3.9655    magn:    0.7682    constr:    0.0000
     atom:   16    charge:    3.9658    magn:    0.7668    constr:    0.0000
     atom:   17    charge:    3.9648    magn:    0.7666    constr:    0.0000
     atom:   18    charge:    3.9658    magn:    0.7668    constr:    0.0000
     atom:   19    charge:    3.9651    magn:    0.7669    constr:    0.0000
     atom:   20    charge:    3.9651    magn:    0.7669    constr:    0.0000
     atom:   21    charge:    3.9663    magn:    0.7591    constr:    0.0000
     atom:   22    charge:    3.9693    magn:    0.7621    constr:    0.0000
     atom:   23    charge:    3.9671    magn:    0.7629    constr:    0.0000
     atom:   24    charge:    3.9693    magn:    0.7620    constr:    0.0000
     atom:   25    charge:    3.9615    magn:    0.7645    constr:    0.0000
     atom:   26    charge:    3.9615    magn:    0.7646    constr:    0.0000
     atom:   27    charge:    3.9628    magn:    0.7652    constr:    0.0000
     atom:   28    charge:    3.9638    magn:    0.7603    constr:    0.0000
     atom:   29    charge:    3.9629    magn:    0.7622    constr:    0.0000
     atom:   30    charge:    3.9638    magn:    0.7603    constr:    0.0000
     atom:   31    charge:    3.9682    magn:    0.7694    constr:    0.0000
     atom:   32    charge:    3.9682    magn:    0.7694    constr:    0.0000
     atom:   33    charge:    3.9697    magn:    0.7665    constr:    0.0000
     atom:   34    charge:    3.9793    magn:    0.7688    constr:    0.0000
     atom:   35    charge:    3.9783    magn:    0.7688    constr:    0.0000
     atom:   36    charge:    3.9793    magn:    0.7687    constr:    0.0000
     atom:   37    charge:    2.0848    magn:    0.5664    constr:    0.0000

     total cpu time spent up to now is     1345.6 secs

     total energy              =   -3656.05884468 Ry
     Harris-Foulkes estimate   =   -3655.78289430 Ry
     estimated scf accuracy    <       1.70709783 Ry

     total magnetization       =    35.21 Bohr mag/cell
     absolute magnetization    =    36.23 Bohr mag/cell

     iteration # 10     ecut=    44.10 Ry     beta=0.10
     Davidson diagonalization with overlap
     ethr =  4.00E-04,  avg # of iterations =  1.1

     negative rho (up, down):  9.097E-04 7.110E-04
 
     Adding external electric field

     Computed dipole along edir(3) : 
        Dipole               -0.2135 Ry au,         -0.5426 Debye
        Dipole field         -0.0002 Ry au
 
        Potential amp.        0.0315 Ry
        Total length         73.6798 bohr
 
 
     Adding external electric field

     Computed dipole along edir(3) : 
        Dipole               -0.2135 Ry au,         -0.5426 Debye
        Dipole field         -0.0002 Ry au
 
        Potential amp.        0.0315 Ry
        Total length         73.6798 bohr
 
 
     Magnetic moment per site:
     atom:    1    charge:    3.9725    magn:    0.6555    constr:    0.0000
     atom:    2    charge:    3.9725    magn:    0.6555    constr:    0.0000
     atom:    3    charge:    3.9889    magn:    0.6485    constr:    0.0000
     atom:    4    charge:    3.9709    magn:    0.6450    constr:    0.0000
     atom:    5    charge:    3.9768    magn:    0.6495    constr:    0.0000
     atom:    6    charge:    3.9709    magn:    0.6449    constr:    0.0000
     atom:    7    charge:    3.9698    magn:    0.6354    constr:    0.0000
     atom:    8    charge:    3.9698    magn:    0.6353    constr:    0.0000
     atom:    9    charge:    3.9687    magn:    0.6319    constr:    0.0000
     atom:   10    charge:    3.9648    magn:    0.6263    constr:    0.0000
     atom:   11    charge:    3.9701    magn:    0.6383    constr:    0.0000
     atom:   12    charge:    3.9648    magn:    0.6264    constr:    0.0000
     atom:   13    charge:    3.9683    magn:    0.6374    constr:    0.0000
     atom:   14    charge:    3.9683    magn:    0.6374    constr:    0.0000
     atom:   15    charge:    3.9667    magn:    0.6436    constr:    0.0000
     atom:   16    charge:    3.9689    magn:    0.6397    constr:    0.0000
     atom:   17    charge:    3.9706    magn:    0.6373    constr:    0.0000
     atom:   18    charge:    3.9690    magn:    0.6397    constr:    0.0000
     atom:   19    charge:    3.9680    magn:    0.6399    constr:    0.0000
     atom:   20    charge:    3.9680    magn:    0.6399    constr:    0.0000
     atom:   21    charge:    3.9657    magn:    0.6324    constr:    0.0000
     atom:   22    charge:    3.9641    magn:    0.6408    constr:    0.0000
     atom:   23    charge:    3.9678    magn:    0.6368    constr:    0.0000
     atom:   24    charge:    3.9641    magn:    0.6408    constr:    0.0000
     atom:   25    charge:    3.9658    magn:    0.6365    constr:    0.0000
     atom:   26    charge:    3.9658    magn:    0.6365    constr:    0.0000
     atom:   27    charge:    3.9629    magn:    0.6411    constr:    0.0000
     atom:   28    charge:    3.9621    magn:    0.6351    constr:    0.0000
     atom:   29    charge:    3.9650    magn:    0.6342    constr:    0.0000
     atom:   30    charge:    3.9621    magn:    0.6351    constr:    0.0000
     atom:   31    charge:    3.9689    magn:    0.6437    constr:    0.0000
     atom:   32    charge:    3.9689    magn:    0.6437    constr:    0.0000
     atom:   33    charge:    3.9650    magn:    0.6445    constr:    0.0000
     atom:   34    charge:    3.9798    magn:    0.6402    constr:    0.0000
     atom:   35    charge:    3.9826    magn:    0.6367    constr:    0.0000
     atom:   36    charge:    3.9798    magn:    0.6402    constr:    0.0000
     atom:   37    charge:    2.0864    magn:    0.4320    constr:    0.0000

     total cpu time spent up to now is     1468.8 secs

     total energy              =   -3656.31270002 Ry
     Harris-Foulkes estimate   =   -3656.12597055 Ry
     estimated scf accuracy    <       1.79070432 Ry

     total magnetization       =    32.41 Bohr mag/cell
     absolute magnetization    =    34.15 Bohr mag/cell

     iteration # 11     ecut=    44.10 Ry     beta=0.10
     Davidson diagonalization with overlap
     ethr =  4.00E-04,  avg # of iterations =  2.6
  python dir          : /home/vossj/suncat/lib/python2.7/site-packages/espresso
  espresso dir        : /home/vossj/suncat/esdld/espresso-dynpy-beef/bin
  pseudo dir          : /home/alatimer/bin/psp/esp_psp_w_gbrvRu/
  ase-espresso py git : ffa2778-git



     Program PWSCF v.5.1rc2 (svn rev. ) starts on 23Mar2018 at  9:37:52 

     This program is part of the open-source Quantum ESPRESSO suite
     for quantum simulation of materials; please cite
         "P. Giannozzi et al., J. Phys.:Condens. Matter 21 395502 (2009);
          URL http://www.quantum-espresso.org", 
     in publications or presentations arising from this work. More details at
     http://www.quantum-espresso.org/quote

     Parallel version (MPI), running on    16 processors
     R & G space division:  proc/nbgrp/npool/nimage =      16
     Reading input from pw.inp
     Message from routine read_cards :
     DEPRECATED: no units specified in CELL_PARAMETERS card

     Current dimensions of program PWSCF are:
     Max number of different atomic species (ntypx) = 10
     Max number of k-points (npk) =  40000
     Max angular momentum in pseudopotentials (lmaxx) =  3
     Presently no symmetry can be used with electric field


     IMPORTANT: XC functional enforced from input :
     Exchange-correlation      = RPBE ( 1  4 28  4 0)
     Any further DFT definition will be discarded
     Please, verify this is what you really want

               file Ni.UPF: wavefunction(s)  3D renormalized

     Subspace diagonalization in iterative solution of the eigenvalue problem:
     a serial algorithm will be used

 
     Parallelization info
     --------------------
     sticks:   dense  smooth     PW     G-vecs:    dense   smooth      PW
     Min         363     145     39               122687    31011    4299
     Max         364     146     40               122712    31054    4310
     Sum        5823    2325    627              1963319   496527   68879
 
     Generating pointlists ...
     new r_m :   0.4125 (alat units)  0.7795 (a.u.) for type    1
     new r_m :   0.4125 (alat units)  0.7795 (a.u.) for type    2


     bravais-lattice index     =            0
     lattice parameter (alat)  =       1.8897  a.u.
     unit-cell volume          =   12553.3819 (a.u.)^3
     number of atoms/cell      =           37
     number of atomic types    =            2
     number of electrons       =       366.00
     number of Kohn-Sham states=          283
     kinetic-energy cutoff     =      44.0992  Ry
     charge density cutoff     =     440.9919  Ry
     convergence threshold     =      7.3E-07
     mixing beta               =       0.1000
     number of iterations used =           10  plain     mixing
     Exchange-correlation      = RPBE ( 1  4 28  4 0)
     nstep                     =           50


     celldm(1)=   1.889726  celldm(2)=   0.000000  celldm(3)=   0.000000
     celldm(4)=   0.000000  celldm(5)=   0.000000  celldm(6)=   0.000000

     crystal axes: (cart. coord. in units of alat)
               a(1) = (   6.162925   0.000000   0.000000 )  
               a(2) = (   0.000000   7.548011   0.000000 )  
               a(3) = (   0.000000   0.000000  39.989385 )  

     reciprocal axes: (cart. coord. in units 2 pi/alat)
               b(1) = (  0.162261  0.000000  0.000000 )  
               b(2) = (  0.000000  0.132485  0.000000 )  
               b(3) = (  0.000000  0.000000  0.025007 )  


     PseudoPot. # 1 for Ni read from file:
     /home/alatimer/bin/psp/esp_psp_w_gbrvRu/Ni.UPF
     MD5 check sum: 8b2449ee0060d9c33484ccd47bb60870
     Pseudo is Ultrasoft + core correction, Zval = 10.0
     Generated using "atomic" code by A. Dal Corso  v.5.0.2 svn rev. 9415
     Using radial grid of 1195 points,  6 beta functions with: 
                l(1) =   0
                l(2) =   0
                l(3) =   1
                l(4) =   1
                l(5) =   2
                l(6) =   2
     Q(r) pseudized with 0 coefficients 


     PseudoPot. # 2 for  O read from file:
     /home/alatimer/bin/psp/esp_psp_w_gbrvRu/O.UPF
     MD5 check sum: e057bbcf3229fb5d8c36c0c92f9568b4
     Pseudo is Ultrasoft + core correction, Zval =  6.0
     Generated using "atomic" code by A. Dal Corso  v.5.0.2 svn rev. 9415
     Using radial grid of 1095 points,  4 beta functions with: 
                l(1) =   0
                l(2) =   0
                l(3) =   1
                l(4) =   1
     Q(r) pseudized with 0 coefficients 


     atomic species   valence    mass     pseudopotential
        Ni1           10.00    58.69340     Ni( 1.00)
        O1             6.00    15.99940      O( 1.00)

     Starting magnetic structure 
     atomic species   magnetization
        Ni1          0.300
        O1           0.500

     No symmetry found



   Cartesian axes

     site n.     atom                  positions (alat units)
         1           Ni1 tau(   1) = (   0.0000000   1.2580018  23.9893847  )
         2           Ni1 tau(   2) = (   0.0000000   3.7740055  23.9893847  )
         3           Ni1 tau(   3) = (   0.0000000   6.2900092  23.9893847  )
         4           Ni1 tau(   4) = (   4.1086168   0.0000000  23.2630770  )
         5           Ni1 tau(   5) = (   4.1086168   2.5160037  23.2630770  )
         6           Ni1 tau(   6) = (   4.1086168   5.0320073  23.2630770  )
         7           Ni1 tau(   7) = (   2.0543084   1.2580018  22.5367693  )
         8           Ni1 tau(   8) = (   2.0543084   3.7740055  22.5367693  )
         9           Ni1 tau(   9) = (   2.0543084   6.2900092  22.5367693  )
        10           Ni1 tau(  10) = (   0.0000000   0.0000000  21.8104616  )
        11           Ni1 tau(  11) = (   0.0000000   2.5160037  21.8104616  )
        12           Ni1 tau(  12) = (   0.0000000   5.0320073  21.8104616  )
        13           Ni1 tau(  13) = (   4.1086168   1.2580018  21.0841539  )
        14           Ni1 tau(  14) = (   4.1086168   3.7740055  21.0841539  )
        15           Ni1 tau(  15) = (   4.1086168   6.2900092  21.0841539  )
        16           Ni1 tau(  16) = (   2.0543084   0.0000000  20.3578462  )
        17           Ni1 tau(  17) = (   2.0543084   2.5160037  20.3578462  )
        18           Ni1 tau(  18) = (   2.0543084   5.0320073  20.3578462  )
        19           Ni1 tau(  19) = (   0.0000000   1.2580018  19.6315385  )
        20           Ni1 tau(  20) = (   0.0000000   3.7740055  19.6315385  )
        21           Ni1 tau(  21) = (   0.0000000   6.2900092  19.6315385  )
        22           Ni1 tau(  22) = (   4.1086168   0.0000000  18.9052308  )
        23           Ni1 tau(  23) = (   4.1086168   2.5160037  18.9052308  )
        24           Ni1 tau(  24) = (   4.1086168   5.0320073  18.9052308  )
        25           Ni1 tau(  25) = (   2.0543084   1.2580018  18.1789231  )
        26           Ni1 tau(  26) = (   2.0543084   3.7740055  18.1789231  )
        27           Ni1 tau(  27) = (   2.0543084   6.2900092  18.1789231  )
        28           Ni1 tau(  28) = (   0.0000000   0.0000000  17.4526154  )
        29           Ni1 tau(  29) = (   0.0000000   2.5160037  17.4526154  )
        30           Ni1 tau(  30) = (   0.0000000   5.0320073  17.4526154  )
        31           Ni1 tau(  31) = (   4.1086168   1.2580018  16.7263077  )
        32           Ni1 tau(  32) = (   4.1086168   3.7740055  16.7263077  )
        33           Ni1 tau(  33) = (   4.1086168   6.2900092  16.7263077  )
        34           Ni1 tau(  34) = (   2.0543084   0.0000000  16.0000000  )
        35           Ni1 tau(  35) = (   2.0543084   2.5160037  16.0000000  )
        36           Ni1 tau(  36) = (   2.0543084   5.0320073  16.0000000  )
        37           O1  tau(  37) = (   0.0000000   2.5160037  25.0893847  )

     number of k points=    10  Fermi-Dirac smearing, width (Ry)=  0.0073
                       cart. coord. in units 2pi/alat
        k(    1) = (   0.0000000   0.0000000   0.0000000), wk =   0.1111111
        k(    2) = (   0.0000000   0.0441617   0.0000000), wk =   0.2222222
        k(    3) = (   0.0540869   0.0000000   0.0000000), wk =   0.2222222
        k(    4) = (   0.0540869   0.0441617   0.0000000), wk =   0.2222222
        k(    5) = (   0.0540869  -0.0441617   0.0000000), wk =   0.2222222
        k(    6) = (   0.0000000   0.0000000   0.0000000), wk =   0.1111111
        k(    7) = (   0.0000000   0.0441617   0.0000000), wk =   0.2222222
        k(    8) = (   0.0540869   0.0000000   0.0000000), wk =   0.2222222
        k(    9) = (   0.0540869   0.0441617   0.0000000), wk =   0.2222222
        k(   10) = (   0.0540869  -0.0441617   0.0000000), wk =   0.2222222

     Dense  grid:  1963319 G-vectors     FFT dimensions: (  80,  96, 512)

     Smooth grid:   496527 G-vectors     FFT dimensions: (  50,  64, 320)

     Largest allocated arrays     est. size (Mb)     dimensions
        Kohn-Sham Wavefunctions        16.83 Mb     (    3897,  283)
        NL pseudopotentials            39.01 Mb     (    3897,  656)
        Each V/rho on FFT grid          7.50 Mb     (  245760,   2)
        Each G-vector array             0.94 Mb     (  122712)
        G-vector shells                 0.42 Mb     (   55687)
     Largest temporary arrays     est. size (Mb)     dimensions
        Auxiliary wavefunctions        67.31 Mb     (    3897, 1132)
        Each subspace H/S matrix       19.55 Mb     (    1132, 1132)
        Each <psi_i|beta_j> matrix      2.83 Mb     (     656,  283)
        Arrays for rho mixing          37.50 Mb     (  245760,   10)

     Check: negative/imaginary core charge=   -0.000002    0.000000

     Initial potential from superposition of free atoms
     Check: negative starting charge=(component1):   -0.000985
     Check: negative starting charge=(component2):   -0.000519

     starting charge  365.99096, renormalised to  366.00000

     negative rho (up, down):  9.852E-04 5.190E-04
 
     Adding external electric field

     Computed dipole along edir(3) : 
        Dipole               -0.0014 Ry au,         -0.0036 Debye
        Dipole field         -0.0000 Ry au
 
        Potential amp.        0.0002 Ry
        Total length         73.6798 bohr
 
 
     Adding external electric field

     Computed dipole along edir(3) : 
        Dipole               -0.0014 Ry au,         -0.0036 Debye
        Dipole field         -0.0000 Ry au
 
        Potential amp.        0.0002 Ry
        Total length         73.6798 bohr
 
     Starting wfc are  328 randomized atomic wfcs

     total cpu time spent up to now is       51.3 secs

     Self-consistent Calculation

     iteration #  1     ecut=    44.10 Ry     beta=0.10
     Davidson diagonalization with overlap
     ethr =  1.00E-02,  avg # of iterations =  8.5

     negative rho (up, down):  9.068E-04 4.667E-04
 
     Adding external electric field

     Computed dipole along edir(3) : 
        Dipole               -0.7241 Ry au,         -1.8404 Debye
        Dipole field         -0.0007 Ry au
 
        Potential amp.        0.1068 Ry
        Total length         73.6798 bohr
 
 
     Adding external electric field

     Computed dipole along edir(3) : 
        Dipole               -0.7241 Ry au,         -1.8404 Debye
        Dipole field         -0.0007 Ry au
 
        Potential amp.        0.1068 Ry
        Total length         73.6798 bohr
 
 
     Magnetic moment per site:
     atom:    1    charge:    3.9348    magn:    1.1498    constr:    0.0000
     atom:    2    charge:    3.9348    magn:    1.1498    constr:    0.0000
     atom:    3    charge:    3.9311    magn:    1.1515    constr:    0.0000
     atom:    4    charge:    3.9521    magn:    1.1282    constr:    0.0000
     atom:    5    charge:    3.9534    magn:    1.1276    constr:    0.0000
     atom:    6    charge:    3.9521    magn:    1.1282    constr:    0.0000
     atom:    7    charge:    3.9647    magn:    1.1153    constr:    0.0000
     atom:    8    charge:    3.9647    magn:    1.1153    constr:    0.0000
     atom:    9    charge:    3.9627    magn:    1.1170    constr:    0.0000
     atom:   10    charge:    3.9725    magn:    1.1095    constr:    0.0000
     atom:   11    charge:    3.9723    magn:    1.1112    constr:    0.0000
     atom:   12    charge:    3.9725    magn:    1.1095    constr:    0.0000
     atom:   13    charge:    3.9727    magn:    1.1086    constr:    0.0000
     atom:   14    charge:    3.9727    magn:    1.1086    constr:    0.0000
     atom:   15    charge:    3.9729    magn:    1.1087    constr:    0.0000
     atom:   16    charge:    3.9742    magn:    1.1073    constr:    0.0000
     atom:   17    charge:    3.9742    magn:    1.1070    constr:    0.0000
     atom:   18    charge:    3.9742    magn:    1.1073    constr:    0.0000
     atom:   19    charge:    3.9735    magn:    1.1073    constr:    0.0000
     atom:   20    charge:    3.9735    magn:    1.1073    constr:    0.0000
     atom:   21    charge:    3.9738    magn:    1.1064    constr:    0.0000
     atom:   22    charge:    3.9728    magn:    1.1087    constr:    0.0000
     atom:   23    charge:    3.9726    magn:    1.1087    constr:    0.0000
     atom:   24    charge:    3.9728    magn:    1.1087    constr:    0.0000
     atom:   25    charge:    3.9686    magn:    1.1115    constr:    0.0000
     atom:   26    charge:    3.9686    magn:    1.1115    constr:    0.0000
     atom:   27    charge:    3.9687    magn:    1.1115    constr:    0.0000
     atom:   28    charge:    3.9609    magn:    1.1161    constr:    0.0000
     atom:   29    charge:    3.9612    magn:    1.1158    constr:    0.0000
     atom:   30    charge:    3.9609    magn:    1.1161    constr:    0.0000
     atom:   31    charge:    3.9510    magn:    1.1289    constr:    0.0000
     atom:   32    charge:    3.9510    magn:    1.1289    constr:    0.0000
     atom:   33    charge:    3.9510    magn:    1.1289    constr:    0.0000
     atom:   34    charge:    3.9278    magn:    1.1521    constr:    0.0000
     atom:   35    charge:    3.9277    magn:    1.1520    constr:    0.0000
     atom:   36    charge:    3.9278    magn:    1.1520    constr:    0.0000
     atom:   37    charge:    2.0284    magn:    0.9444    constr:    0.0000

     total cpu time spent up to now is      223.4 secs

     total energy              =   -3652.96859329 Ry
     Harris-Foulkes estimate   =   -3654.95972038 Ry
     estimated scf accuracy    <      15.78538405 Ry

     total magnetization       =    37.97 Bohr mag/cell
     absolute magnetization    =    38.01 Bohr mag/cell

     iteration #  2     ecut=    44.10 Ry     beta=0.10
     Davidson diagonalization with overlap
     ethr =  4.31E-03,  avg # of iterations =  3.4

     negative rho (up, down):  8.970E-04 5.241E-04
 
     Adding external electric field

     Computed dipole along edir(3) : 
        Dipole                0.3378 Ry au,          0.8587 Debye
        Dipole field          0.0003 Ry au
 
        Potential amp.       -0.0498 Ry
        Total length         73.6798 bohr
 
 
     Adding external electric field

     Computed dipole along edir(3) : 
        Dipole                0.3378 Ry au,          0.8587 Debye
        Dipole field          0.0003 Ry au
 
        Potential amp.       -0.0498 Ry
        Total length         73.6798 bohr
 
 
     Magnetic moment per site:
     atom:    1    charge:    3.9527    magn:    1.1263    constr:    0.0000
     atom:    2    charge:    3.9527    magn:    1.1263    constr:    0.0000
     atom:    3    charge:    3.9507    magn:    1.1265    constr:    0.0000
     atom:    4    charge:    3.9652    magn:    1.1061    constr:    0.0000
     atom:    5    charge:    3.9664    magn:    1.1056    constr:    0.0000
     atom:    6    charge:    3.9652    magn:    1.1061    constr:    0.0000
     atom:    7    charge:    3.9670    magn:    1.1008    constr:    0.0000
     atom:    8    charge:    3.9670    magn:    1.1008    constr:    0.0000
     atom:    9    charge:    3.9666    magn:    1.1011    constr:    0.0000
     atom:   10    charge:    3.9641    magn:    1.1026    constr:    0.0000
     atom:   11    charge:    3.9636    magn:    1.1047    constr:    0.0000
     atom:   12    charge:    3.9641    magn:    1.1026    constr:    0.0000
     atom:   13    charge:    3.9530    magn:    1.1114    constr:    0.0000
     atom:   14    charge:    3.9530    magn:    1.1114    constr:    0.0000
     atom:   15    charge:    3.9532    magn:    1.1116    constr:    0.0000
     atom:   16    charge:    3.9504    magn:    1.1132    constr:    0.0000
     atom:   17    charge:    3.9502    magn:    1.1131    constr:    0.0000
     atom:   18    charge:    3.9504    magn:    1.1132    constr:    0.0000
     atom:   19    charge:    3.9523    magn:    1.1112    constr:    0.0000
     atom:   20    charge:    3.9523    magn:    1.1112    constr:    0.0000
     atom:   21    charge:    3.9521    magn:    1.1104    constr:    0.0000
     atom:   22    charge:    3.9616    magn:    1.1042    constr:    0.0000
     atom:   23    charge:    3.9616    magn:    1.1040    constr:    0.0000
     atom:   24    charge:    3.9616    magn:    1.1042    constr:    0.0000
     atom:   25    charge:    3.9711    magn:    1.0957    constr:    0.0000
     atom:   26    charge:    3.9711    magn:    1.0957    constr:    0.0000
     atom:   27    charge:    3.9712    magn:    1.0957    constr:    0.0000
     atom:   28    charge:    3.9713    magn:    1.0949    constr:    0.0000
     atom:   29    charge:    3.9715    magn:    1.0947    constr:    0.0000
     atom:   30    charge:    3.9713    magn:    1.0949    constr:    0.0000
     atom:   31    charge:    3.9671    magn:    1.1051    constr:    0.0000
     atom:   32    charge:    3.9671    magn:    1.1051    constr:    0.0000
     atom:   33    charge:    3.9671    magn:    1.1051    constr:    0.0000
     atom:   34    charge:    3.9489    magn:    1.1267    constr:    0.0000
     atom:   35    charge:    3.9488    magn:    1.1267    constr:    0.0000
     atom:   36    charge:    3.9489    magn:    1.1267    constr:    0.0000
     atom:   37    charge:    2.0377    magn:    0.9275    constr:    0.0000

     total cpu time spent up to now is      336.9 secs

     total energy              =   -3652.96393540 Ry
     Harris-Foulkes estimate   =   -3657.91592828 Ry
     estimated scf accuracy    <     112.63133833 Ry

     total magnetization       =    43.10 Bohr mag/cell
     absolute magnetization    =    43.34 Bohr mag/cell

     iteration #  3     ecut=    44.10 Ry     beta=0.10
     Davidson diagonalization with overlap
     ethr =  4.31E-03,  avg # of iterations =  2.3

     negative rho (up, down):  8.990E-04 6.040E-04
 
     Adding external electric field

     Computed dipole along edir(3) : 
        Dipole               -0.6116 Ry au,         -1.5546 Debye
        Dipole field         -0.0006 Ry au
 
        Potential amp.        0.0902 Ry
        Total length         73.6798 bohr
 
 
     Adding external electric field

[...]
     5.6186   5.7260   5.7667   5.7964   5.8422   5.8862   5.9603   6.0144
     6.0445   6.1445   6.2118   6.2632   6.3280   6.3996   6.4658   6.5981
     6.6385   6.6898   6.7309   6.7770   6.8389   6.8744   6.9538   7.0602
     7.1181   7.1639   7.2514   7.4602   7.5516   7.5741   7.6588   7.7621
     7.8354   7.8756   7.9439   7.9512   7.9999   8.0918   8.1869   8.2434
     8.2802   8.3091   8.4779

 ------ SPIN DOWN ----------


          k = 0.0000 0.0000 0.0000 ( 62137 PWs)   bands (ev):

   -19.0501  -9.4844  -8.2311  -6.9810  -6.9565  -6.6045  -6.1974  -6.0635
    -6.0188  -5.9661  -5.6675  -5.5348  -5.2174  -5.1245  -5.0203  -4.9276
    -4.8958  -4.8909  -4.8483  -4.8387  -4.8092  -4.7042  -4.6686  -4.5248
    -4.4828  -4.4728  -4.4465  -4.4390  -4.3320  -4.2472  -4.1942  -4.1767
    -4.1443  -4.1345  -4.1120  -4.0991  -4.0516  -4.0452  -3.9765  -3.8931
    -3.8597  -3.8420  -3.8351  -3.8074  -3.7824  -3.7044  -3.6507  -3.6450
    -3.5857  -3.5815  -3.4029  -3.3961  -3.3714  -3.3586  -3.3458  -3.3314
    -3.3268  -3.2625  -3.2589  -3.2549  -3.2186  -3.2053  -3.2016  -3.1492
    -3.1065  -3.0804  -3.0590  -3.0323  -3.0052  -2.9945  -2.9642  -2.9186
    -2.8869  -2.8523  -2.8355  -2.8300  -2.8036  -2.7977  -2.7823  -2.7063
    -2.6722  -2.6523  -2.6494  -2.6370  -2.6093  -2.5933  -2.5916  -2.5814
    -2.5715  -2.5649  -2.5310  -2.5133  -2.4904  -2.4796  -2.4604  -2.4504
    -2.4282  -2.3939  -2.3676  -2.3647  -2.3517  -2.3453  -2.3410  -2.3106
    -2.3060  -2.2900  -2.2695  -2.2468  -2.2244  -2.2168  -2.2156  -2.2067
    -2.1724  -2.1350  -2.1286  -2.1084  -2.0670  -2.0507  -1.9964  -1.9640
    -1.9427  -1.9275  -1.9157  -1.8863  -1.8841  -1.8750  -1.8501  -1.8080
    -1.7523  -1.7445  -1.7242  -1.7090  -1.7053  -1.6940  -1.6807  -1.6742
    -1.6285  -1.5551  -1.5426  -1.5244  -1.4904  -1.4777  -1.4628  -1.4320
    -1.4046  -1.4036  -1.3888  -1.3729  -1.3606  -1.3428  -1.3182  -1.3169
    -1.2969  -1.2827  -1.2663  -1.2402  -1.2381  -1.2330  -1.2143  -1.2078
    -1.2032  -1.1822  -1.1819  -1.1535  -1.1404  -1.1231  -1.0932  -1.0723
    -1.0551  -1.0331  -1.0255  -1.0084  -0.9754  -0.9705  -0.9672  -0.9484
    -0.9363  -0.9305  -0.9250  -0.9216  -0.9031  -0.8810  -0.8439  -0.8420
    -0.8363  -0.8226  -0.8159  -0.8056  -0.7982  -0.7735  -0.7187  -0.6596
    -0.6014  -0.5255  -0.4817  -0.3104  -0.1585   0.0305   0.3438   0.5075
     0.5214   0.5954   0.6155   0.6422   0.6595   1.0787   1.0877   1.1816
     1.2782   1.3813   1.5680   1.6265   2.0327   2.3234   2.4503   2.5598
     2.6581   2.7189   2.9401   3.1049   3.1280   3.4594   3.5928   3.8262
     3.8705   4.0214   4.2139   4.4504   4.5575   4.6807   4.8210   4.8382
     5.0762   5.1404   5.1704   5.4111   5.6936   5.7233   5.7722   5.8920
     5.9178   6.1096   6.1268   6.1694   6.2256   6.3000   6.4202   6.5052
     6.5666   6.6299   6.7432   6.8163   6.8206   6.9231   6.9397   7.0952
     7.1420   7.1437   7.2022   7.2980   7.3096   7.3705   7.5210   7.5757
     7.6052   7.6165   7.6550   7.6660   7.7625   7.7737   7.8955   8.1218
     8.1389   8.2236   8.2856   8.2931   8.4352   8.5515   8.5758   8.6750
     8.7087   8.7399   8.7736

          k = 0.0000 0.0442 0.0000 ( 62100 PWs)   bands (ev):

   -19.0500  -9.1786  -8.2965  -7.9439  -7.1389  -6.3696  -5.9870  -5.8240
    -5.7875  -5.5672  -5.4759  -5.3830  -5.2280  -5.1939  -5.0357  -4.9728
    -4.9351  -4.8982  -4.8800  -4.8353  -4.7850  -4.6644  -4.6144  -4.6019
    -4.5184  -4.4597  -4.4512  -4.3600  -4.3502  -4.3178  -4.2866  -4.2613
    -4.2474  -4.2360  -4.1952  -4.1429  -4.1097  -4.0477  -4.0114  -3.9532
    -3.8853  -3.8618  -3.8083  -3.7905  -3.7645  -3.7135  -3.6559  -3.6040
    -3.5867  -3.5642  -3.4400  -3.4211  -3.3774  -3.3627  -3.3353  -3.3205
    -3.3190  -3.2934  -3.2856  -3.2580  -3.2092  -3.2034  -3.1992  -3.1638
    -3.0954  -3.0729  -3.0356  -3.0260  -3.0089  -2.9920  -2.9820  -2.9510
    -2.9297  -2.8847  -2.8590  -2.8387  -2.8335  -2.8211  -2.8026  -2.7692
    -2.7643  -2.7617  -2.7000  -2.6901  -2.6675  -2.6314  -2.6114  -2.5845
    -2.5688  -2.5547  -2.5430  -2.5232  -2.4870  -2.4847  -2.4702  -2.4569
    -2.4364  -2.4326  -2.3954  -2.3729  -2.3593  -2.3459  -2.3279  -2.3140
    -2.2804  -2.2496  -2.2439  -2.2053  -2.1921  -2.1738  -2.1638  -2.1588
    -2.1327  -2.1111  -2.1005  -2.0804  -2.0784  -2.0596  -2.0189  -2.0026
    -1.9835  -1.9608  -1.9547  -1.9436  -1.9184  -1.8933  -1.8683  -1.8374
    -1.8194  -1.8050  -1.7744  -1.7516  -1.7450  -1.7161  -1.6733  -1.6666
    -1.6599  -1.6313  -1.6077  -1.5896  -1.5557  -1.5296  -1.5214  -1.5014
    -1.4843  -1.4686  -1.4379  -1.4225  -1.4147  -1.3983  -1.3789  -1.3540
    -1.3393  -1.3148  -1.2849  -1.2561  -1.2490  -1.2242  -1.2039  -1.1879
    -1.1737  -1.1531  -1.1196  -1.1031  -1.0818  -1.0369  -1.0209  -1.0108
    -0.9764  -0.9684  -0.9586  -0.9509  -0.9484  -0.9358  -0.9340  -0.9185
    -0.9101  -0.8996  -0.8772  -0.8557  -0.8452  -0.8352  -0.8023  -0.7872
    -0.7751  -0.7578  -0.7141  -0.6924  -0.6571  -0.6345  -0.5637  -0.4267
    -0.3279  -0.1752  -0.1451  -0.1351  -0.1139  -0.0117   0.0764   0.3210
     0.4721   0.5552   0.6885   0.9068   1.0082   1.1417   1.4025   1.5557
     1.5909   1.6570   1.7348   1.7619   1.8878   2.1232   2.1316   2.1616
     2.2537   2.5772   2.8380   3.0673   3.3057   3.3528   3.3687   3.4467
     3.5372   3.7665   4.0135   4.2345   4.2957   4.4164   4.5778   4.6190
     4.6890   4.9281   5.0489   5.1477   5.2380   5.3755   5.4029   5.6695
     5.7559   5.7866   5.8964   6.0137   6.2352   6.3503   6.4499   6.4829
     6.5829   6.6211   6.7544   6.8759   7.1279   7.1853   7.2577   7.2991
     7.3815   7.4645   7.5049   7.5753   7.5973   7.7038   7.7284   7.7807
     7.7961   7.8746   7.9223   8.0453   8.0624   8.1441   8.1698   8.2304
     8.3384   8.3661   8.4077   8.4372   8.4454   8.5033   8.5174   8.6074
     8.6524   8.6950   8.7071

          k = 0.0541 0.0000 0.0000 ( 61980 PWs)   bands (ev):

   -19.0500  -9.0278  -7.8692  -7.6713  -6.6998  -6.6585  -6.6215  -6.1855
    -6.1178  -5.8006  -5.7088  -5.6905  -5.6222  -5.5629  -5.3393  -5.1909
    -5.1051  -5.0903  -5.0031  -4.8717  -4.6662  -4.6280  -4.6126  -4.4602
    -4.4504  -4.4076  -4.4013  -4.3714  -4.2051  -4.1142  -4.0482  -4.0461
    -4.0243  -4.0182  -4.0074  -4.0000  -3.9801  -3.9503  -3.9211  -3.8795
    -3.8744  -3.8360  -3.7965  -3.7755  -3.7751  -3.7404  -3.6747  -3.6271
    -3.6134  -3.5885  -3.5743  -3.4770  -3.4491  -3.4046  -3.3695  -3.3045
    -3.2792  -3.2751  -3.2375  -3.2314  -3.1692  -3.1576  -3.1422  -3.1369
    -3.1117  -3.0526  -3.0092  -3.0058  -2.9704  -2.9319  -2.9039  -2.8680
    -2.8467  -2.8258  -2.7874  -2.7655  -2.7572  -2.7301  -2.7162  -2.7066
    -2.6852  -2.6724  -2.6248  -2.6073  -2.5659  -2.5641  -2.5558  -2.5487
    -2.5442  -2.5412  -2.5148  -2.5083  -2.4910  -2.4827  -2.4707  -2.4689
    -2.4371  -2.4020  -2.3907  -2.3816  -2.3775  -2.3759  -2.3742  -2.3473
    -2.3017  -2.2843  -2.2750  -2.2617  -2.2139  -2.2031  -2.1738  -2.1670
    -2.1044  -2.0915  -2.0457  -2.0281  -2.0227  -1.9965  -1.9567  -1.9455
    -1.9034  -1.8934  -1.8628  -1.8136  -1.8124  -1.7813  -1.7749  -1.7558
    -1.7376  -1.6997  -1.6894  -1.6805  -1.6485  -1.6426  -1.6274  -1.6210
    -1.6083  -1.5980  -1.5722  -1.5267  -1.4971  -1.4930  -1.4706  -1.4570
    -1.4254  -1.4113  -1.3985  -1.3890  -1.3780  -1.3698  -1.3412  -1.3407
    -1.3099  -1.2935  -1.2909  -1.2456  -1.2344  -1.2143  -1.1915  -1.1882
    -1.1712  -1.1525  -1.1396  -1.1202  -1.1186  -1.1139  -1.1056  -1.0788
    -1.0772  -1.0710  -1.0642  -1.0231  -1.0208  -1.0029  -0.9930  -0.9836
    -0.9623  -0.9586  -0.9459  -0.8840  -0.8688  -0.8536  -0.8499  -0.8431
    -0.8296  -0.8153  -0.7946  -0.7924  -0.7755  -0.7661  -0.7384  -0.7231
    -0.7084  -0.6907  -0.6763  -0.6157  -0.5926  -0.4004  -0.2917  -0.2142
    -0.1105  -0.0709   0.0761   0.2738   0.4559   0.8355   1.2932   1.4106
     1.6009   1.9593   2.4343   2.5794   2.9657   3.1219   3.1479   3.1892
     3.5035   3.5339   3.7679   3.8801   3.9283   3.9720   4.2320   4.2419
     4.3379   4.5300   4.6136   4.7128   4.7960   4.8651   5.0216   5.1454
     5.2071   5.2230   5.3842   5.4818   5.6126   5.6905   5.7018   5.7297
     5.8260   5.9201   5.9661   6.0251   6.1283   6.2012   6.2512   6.2671
     6.3234   6.4089   6.4648   6.5349   6.5878   6.6692   6.7749   6.8192
     6.8544   6.8877   6.8990   6.9238   6.9407   7.0144   7.2095   7.2575
     7.3020   7.3220   7.3442   7.3792   7.3949   7.4906   7.5018   7.5749
     7.5767   7.6692   7.8058   7.8373   7.8436   7.9525   8.0023   8.0090
     8.0365   8.0697   8.1159

          k = 0.0541 0.0442 0.0000 ( 62079 PWs)   bands (ev):

   -19.0499  -8.7300  -7.8799  -7.5955  -7.3967  -6.8499  -6.6463  -6.4665
    -6.0238  -5.9294  -5.6602  -5.4946  -5.3849  -5.2404  -5.1449  -5.0514
    -4.9744  -4.9251  -4.9120  -4.8314  -4.8102  -4.7076  -4.6552  -4.5222
    -4.4997  -4.4175  -4.4035  -4.3777  -4.2791  -4.2429  -4.2074  -4.1975
    -4.1726  -4.1378  -4.0910  -4.0609  -4.0415  -3.9995  -3.8727  -3.8360
    -3.8038  -3.7775  -3.7582  -3.7342  -3.7102  -3.6560  -3.6265  -3.5994
    -3.5774  -3.5644  -3.5133  -3.4693  -3.4347  -3.4131  -3.3731  -3.3494
    -3.3373  -3.2954  -3.2497  -3.2234  -3.2047  -3.1891  -3.1399  -3.1081
    -3.0593  -3.0257  -3.0010  -2.9905  -2.9708  -2.9463  -2.9315  -2.9235
    -2.8914  -2.8573  -2.8332  -2.8192  -2.7932  -2.7630  -2.7446  -2.7247
    -2.7035  -2.6848  -2.6797  -2.6739  -2.6498  -2.6348  -2.6213  -2.5935
    -2.5713  -2.5466  -2.5372  -2.5247  -2.4891  -2.4700  -2.4646  -2.4420
    -2.4200  -2.4040  -2.3792  -2.3545  -2.3405  -2.3208  -2.3050  -2.2925
    -2.2780  -2.2437  -2.2231  -2.2081  -2.1980  -2.1750  -2.1520  -2.1133
    -2.0964  -2.0820  -2.0660  -2.0558  -2.0396  -2.0208  -1.9897  -1.9708
    -1.9449  -1.9233  -1.9145  -1.8941  -1.8682  -1.8581  -1.8448  -1.8057
    -1.7867  -1.7757  -1.7599  -1.7539  -1.7311  -1.6845  -1.6691  -1.6472
    -1.6288  -1.6173  -1.5715  -1.5641  -1.5368  -1.5106  -1.4919  -1.4797
    -1.4729  -1.4366  -1.4285  -1.4051  -1.3911  -1.3826  -1.3686  -1.3422
    -1.3318  -1.3142  -1.3083  -1.2644  -1.2416  -1.2392  -1.2091  -1.1910
    -1.1770  -1.1649  -1.1516  -1.1207  -1.1008  -1.0961  -1.0845  -1.0527
    -1.0215  -1.0137  -0.9953  -0.9747  -0.9354  -0.9211  -0.9084  -0.8915
    -0.8727  -0.8625  -0.8533  -0.8486  -0.8332  -0.8290  -0.8205  -0.7912
    -0.7777  -0.7603  -0.7497  -0.7403  -0.7062  -0.6948  -0.6625  -0.6455
    -0.6365  -0.5510  -0.5228  -0.3778  -0.2379  -0.1394   0.0264   0.1705
     0.2461   0.4137   0.4959   0.5836   0.7677   1.0469   1.1401   1.4334
     1.6829   1.7489   1.8035   1.9523   2.0801   2.3516   2.6967   2.8605
     2.9671   3.0711   3.4103   3.5891   3.8086   3.9585   4.1286   4.2459
     4.3626   4.4943   4.5922   4.6949   4.7944   4.8649   4.9194   5.0224
     5.0826   5.2087   5.3386   5.3951   5.4425   5.5246   5.5715   5.7284
     5.7607   5.8071   5.8212   5.8628   5.9079   5.9582   6.0016   6.0872
     6.2341   6.2485   6.2689   6.3451   6.4044   6.4788   6.5877   6.6330
     6.6823   6.7350   6.8013   6.8795   6.9096   6.9909   7.0495   7.0892
     7.1623   7.1987   7.3139   7.5511   7.5996   7.6742   7.7079   7.8415
     7.9041   7.9386   7.9842   8.0080   8.0941   8.1370   8.2276   8.2803
     8.3565   8.3934   8.5479

          k = 0.0541-0.0442 0.0000 ( 62079 PWs)   bands (ev):

   -19.0499  -8.7300  -7.8799  -7.5955  -7.3967  -6.8499  -6.6463  -6.4665
    -6.0238  -5.9295  -5.6602  -5.4946  -5.3849  -5.2404  -5.1449  -5.0514
    -4.9744  -4.9251  -4.9120  -4.8314  -4.8102  -4.7076  -4.6553  -4.5223
    -4.4997  -4.4176  -4.4035  -4.3777  -4.2791  -4.2429  -4.2074  -4.1976
    -4.1726  -4.1377  -4.0910  -4.0609  -4.0414  -3.9995  -3.8727  -3.8360
    -3.8038  -3.7775  -3.7582  -3.7343  -3.7102  -3.6560  -3.6266  -3.5993
    -3.5775  -3.5644  -3.5133  -3.4693  -3.4347  -3.4131  -3.3730  -3.3494
    -3.3374  -3.2954  -3.2497  -3.2234  -3.2047  -3.1891  -3.1399  -3.1081
    -3.0593  -3.0257  -3.0011  -2.9906  -2.9708  -2.9463  -2.9315  -2.9235
    -2.8915  -2.8573  -2.8332  -2.8192  -2.7932  -2.7630  -2.7446  -2.7247
    -2.7035  -2.6848  -2.6797  -2.6739  -2.6497  -2.6348  -2.6213  -2.5935
    -2.5713  -2.5466  -2.5372  -2.5247  -2.4891  -2.4701  -2.4646  -2.4421
    -2.4200  -2.4040  -2.3792  -2.3546  -2.3405  -2.3209  -2.3050  -2.2924
    -2.2780  -2.2438  -2.2231  -2.2081  -2.1979  -2.1750  -2.1519  -2.1133
    -2.0964  -2.0820  -2.0660  -2.0558  -2.0396  -2.0208  -1.9897  -1.9708
    -1.9449  -1.9233  -1.9145  -1.8940  -1.8682  -1.8582  -1.8448  -1.8057
    -1.7867  -1.7757  -1.7600  -1.7539  -1.7311  -1.6845  -1.6691  -1.6472
    -1.6288  -1.6173  -1.5715  -1.5641  -1.5368  -1.5106  -1.4919  -1.4797
    -1.4729  -1.4366  -1.4284  -1.4052  -1.3911  -1.3826  -1.3686  -1.3422
    -1.3318  -1.3142  -1.3083  -1.2644  -1.2416  -1.2392  -1.2091  -1.1910
    -1.1770  -1.1648  -1.1516  -1.1207  -1.1008  -1.0961  -1.0845  -1.0527
    -1.0215  -1.0137  -0.9953  -0.9747  -0.9354  -0.9211  -0.9084  -0.8915
    -0.8727  -0.8626  -0.8533  -0.8486  -0.8332  -0.8290  -0.8205  -0.7912
    -0.7777  -0.7603  -0.7496  -0.7403  -0.7062  -0.6948  -0.6625  -0.6455
    -0.6365  -0.5510  -0.5229  -0.3777  -0.2379  -0.1395   0.0264   0.1705
     0.2461   0.4137   0.4959   0.5836   0.7676   1.0469   1.1401   1.4334
     1.6829   1.7489   1.8035   1.9523   2.0801   2.3516   2.6967   2.8606
     2.9671   3.0711   3.4102   3.5891   3.8086   3.9586   4.1286   4.2460
     4.3626   4.4943   4.5922   4.6949   4.7943   4.8649   4.9194   5.0225
     5.0826   5.2087   5.3387   5.3951   5.4425   5.5245   5.5716   5.7284
     5.7607   5.8071   5.8212   5.8628   5.9079   5.9582   6.0016   6.0872
     6.2341   6.2485   6.2689   6.3451   6.4044   6.4788   6.5877   6.6330
     6.6823   6.7350   6.8013   6.8795   6.9096   6.9909   7.0495   7.0892
     7.1623   7.1987   7.3139   7.5511   7.5996   7.6742   7.7079   7.8415
     7.9041   7.9386   7.9843   8.0079   8.0941   8.1369   8.2276   8.2803
     8.3565   8.3934   8.5479

     the Fermi energy is    -0.9978 ev

!    total energy              =   -3656.53864749 Ry
     Harris-Foulkes estimate   =   -3656.53864518 Ry
     estimated scf accuracy    <       0.00000043 Ry

     The total energy is the sum of the following terms:

     one-electron contribution =  -77487.38429962 Ry
     hartree contribution      =   39103.11661142 Ry
     xc contribution           =   -1514.20483906 Ry
     ewald contribution        =   36242.09369685 Ry
     electric field correction =       0.00022151 Ry
     smearing contrib. (-TS)   =      -0.16003860 Ry

     total magnetization       =    23.66 Bohr mag/cell
     absolute magnetization    =    27.19 Bohr mag/cell

     convergence has been achieved in  20 iterations

     Forces acting on atoms (Ry/au):


     negative rho (up, down):  8.037E-04 6.553E-04
     atom    1 type  1   force =    -0.00053710   -0.00024002   -0.00053715
     atom    2 type  1   force =    -0.00054116    0.00050059   -0.00077574
     atom    3 type  1   force =     0.00018288   -0.00004676    0.00147501
     atom    4 type  1   force =    -0.00059531   -0.00011307   -0.00083313
     atom    5 type  1   force =     0.00079883    0.00001175    0.00009873
     atom    6 type  1   force =    -0.00055752    0.00009478   -0.00081368
     atom    7 type  1   force =    -0.00089749   -0.00041769    0.00014069
     atom    8 type  1   force =    -0.00091988    0.00043015    0.00016195
     atom    9 type  1   force =     0.00041209   -0.00001194   -0.00132005
     atom   10 type  1   force =     0.00020602    0.00030805   -0.00004029
     atom   11 type  1   force =    -0.00054736    0.00001924    0.00017189
     atom   12 type  1   force =     0.00020456   -0.00032962   -0.00003625
     atom   13 type  1   force =     0.00054447   -0.00039327   -0.00058041
     atom   14 type  1   force =     0.00055361    0.00040866   -0.00063200
     atom   15 type  1   force =     0.00017522   -0.00001414    0.00070131
     atom   16 type  1   force =     0.00050686   -0.00020095    0.00038158
     atom   17 type  1   force =    -0.00120096    0.00002049    0.00020377
     atom   18 type  1   force =     0.00048892    0.00018156    0.00032858
     atom   19 type  1   force =     0.00053872   -0.00077358    0.00042025
     atom   20 type  1   force =     0.00053903    0.00078938    0.00043002
     atom   21 type  1   force =     0.00004317   -0.00001493   -0.00489006
     atom   22 type  1   force =     0.00397710   -0.00037046   -0.00149589
     atom   23 type  1   force =     0.00376887    0.00001696   -0.00223192
     atom   24 type  1   force =     0.00397522    0.00035361   -0.00148224
     atom   25 type  1   force =    -0.00257602    0.00015350   -0.01065077
     atom   26 type  1   force =    -0.00257476   -0.00013598   -0.01064034
     atom   27 type  1   force =    -0.00271420   -0.00001832   -0.01004774
     atom   28 type  1   force =    -0.00187891    0.00026209   -0.01029313
     atom   29 type  1   force =    -0.00206121    0.00000972   -0.01065790
     atom   30 type  1   force =    -0.00187804   -0.00027057   -0.01028898
     atom   31 type  1   force =    -0.00537745   -0.00028310    0.00301137
     atom   32 type  1   force =    -0.00537972    0.00029203    0.00301775
     atom   33 type  1   force =    -0.00577519   -0.00000909    0.00241730
     atom   34 type  1   force =     0.00613621   -0.00002805    0.02125163
     atom   35 type  1   force =     0.00602631    0.00000791    0.02104422
     atom   36 type  1   force =     0.00613647    0.00002072    0.02125608
     atom   37 type  2   force =     0.00079773   -0.00020965    0.00173556

     Total force =     0.048575     Total SCF correction =     0.002193
 !ASE

     Writing output data file calc.save
 
     init_run     :     42.59s CPU     50.99s WALL (       1 calls)
     electrons    :  19458.47s CPU  23403.55s WALL (       6 calls)
     update_pot   :     23.30s CPU     24.76s WALL (       5 calls)
     forces       :    428.35s CPU    445.90s WALL (       6 calls)

     Called by init_run:
     wfcinit      :     21.63s CPU     28.54s WALL (       1 calls)
     potinit      :      1.67s CPU      1.83s WALL (       1 calls)

     Called by electrons:
     c_bands      :  10941.88s CPU  13917.43s WALL (     213 calls)
     sum_band     :   5244.45s CPU   5975.65s WALL (     213 calls)
     v_of_rho     :    115.96s CPU    141.88s WALL (     219 calls)
     newd         :   3208.91s CPU   3416.16s WALL (     219 calls)
     mix_rho      :     25.83s CPU     33.08s WALL (     213 calls)

     Called by c_bands:
     init_us_2    :     66.89s CPU     72.94s WALL (    4330 calls)
     cegterg      :  10464.85s CPU  13423.09s WALL (    2130 calls)

     Called by *egterg:
     h_psi        :   5999.03s CPU   8358.16s WALL (    6437 calls)
     s_psi        :    786.90s CPU    817.67s WALL (    6437 calls)
     g_psi        :     34.37s CPU     35.46s WALL (    4297 calls)
     cdiaghg      :   1430.95s CPU   1465.59s WALL (    6377 calls)

     Called by h_psi:
     add_vuspsi   :    794.29s CPU    820.38s WALL (    6437 calls)

     General routines
     calbec       :   1193.70s CPU   1224.72s WALL (    8627 calls)
     fft          :    106.62s CPU    132.60s WALL (    6843 calls)
     ffts         :      1.76s CPU      2.62s WALL (     864 calls)
     fftw         :   3553.88s CPU   6378.45s WALL ( 3176490 calls)
     interpolate  :     13.93s CPU     21.62s WALL (     864 calls)
     davcio       :      0.06s CPU      1.40s WALL (      10 calls)
 
     Parallel routines
     fft_scatter  :   2115.16s CPU   3785.04s WALL ( 3184197 calls)
 
     PWSCF        :     5h33m CPU        6h40m WALL

 
   This run was terminated on:  16:18: 3  23Mar2018            

=------------------------------------------------------------------------------=
   JOB DONE.
=------------------------------------------------------------------------------=
