  python dir          : /home/vossj/suncat/lib/python2.7/site-packages/espresso
  espresso dir        : /home/vossj/suncat/esdld/espresso-dynpy-beef/bin
  pseudo dir          : /home/alatimer/bin/psp/esp_psp_w_gbrvRu/
  ase-espresso py git : ffa2778-git



     Program PWSCF v.5.1rc2 (svn rev. ) starts on 20Apr2018 at 13:26: 2 

     This program is part of the open-source Quantum ESPRESSO suite
     for quantum simulation of materials; please cite
         "P. Giannozzi et al., J. Phys.:Condens. Matter 21 395502 (2009);
          URL http://www.quantum-espresso.org", 
     in publications or presentations arising from this work. More details at
     http://www.quantum-espresso.org/quote

     Parallel version (MPI), running on    16 processors
     R & G space division:  proc/nbgrp/npool/nimage =      16
     Reading input from pw.inp
     Message from routine read_cards :
     DEPRECATED: no units specified in CELL_PARAMETERS card

     Current dimensions of program PWSCF are:
     Max number of different atomic species (ntypx) = 10
     Max number of k-points (npk) =  40000
     Max angular momentum in pseudopotentials (lmaxx) =  3
     Presently no symmetry can be used with electric field


     IMPORTANT: XC functional enforced from input :
     Exchange-correlation      = RPBE ( 1  4 28  4 0)
     Any further DFT definition will be discarded
     Please, verify this is what you really want


     Subspace diagonalization in iterative solution of the eigenvalue problem:
     a serial algorithm will be used

 
     Parallelization info
     --------------------
     sticks:   dense  smooth     PW     G-vecs:    dense   smooth      PW
     Min         367     147     39               123943    31337    4337
     Max         368     148     40               123966    31384    4354
     Sum        5877    2361    631              1983193   501747   69475
 
     Generating pointlists ...
     new r_m :   0.4125 (alat units)  0.7795 (a.u.) for type    1
     new r_m :   0.4125 (alat units)  0.7795 (a.u.) for type    2


     bravais-lattice index     =            0
     lattice parameter (alat)  =       1.8897  a.u.
     unit-cell volume          =   12682.1321 (a.u.)^3
     number of atoms/cell      =           37
     number of atomic types    =            2
     number of electrons       =       330.00
     number of Kohn-Sham states=          265
     kinetic-energy cutoff     =      44.0992  Ry
     charge density cutoff     =     440.9919  Ry
     convergence threshold     =      7.3E-07
     mixing beta               =       0.1000
     number of iterations used =           10  plain     mixing
     Exchange-correlation      = RPBE ( 1  4 28  4 0)
     nstep                     =           50


     celldm(1)=   1.889726  celldm(2)=   0.000000  celldm(3)=   0.000000
     celldm(4)=   0.000000  celldm(5)=   0.000000  celldm(6)=   0.000000

     crystal axes: (cart. coord. in units of alat)
               a(1) = (   6.191574   0.000000   0.000000 )  
               a(2) = (   0.000000   7.583099   0.000000 )  
               a(3) = (   0.000000   0.000000  40.026524 )  

     reciprocal axes: (cart. coord. in units 2 pi/alat)
               b(1) = (  0.161510  0.000000  0.000000 )  
               b(2) = (  0.000000  0.131872  0.000000 )  
               b(3) = (  0.000000  0.000000  0.024983 )  


     PseudoPot. # 1 for Co read from file:
     /home/alatimer/bin/psp/esp_psp_w_gbrvRu/Co.UPF
     MD5 check sum: f36dda9fe147c5f42efc2a4f7ec0da3d
     Pseudo is Ultrasoft + core correction, Zval =  9.0
     Generated by new atomic code, or converted to UPF format
     Using radial grid of  937 points,  3 beta functions with: 
                l(1) =   1
                l(2) =   2
                l(3) =   2
     Q(r) pseudized with  8 coefficients,  rinner =    1.000   1.000   1.000
                                                       1.000   1.000

     PseudoPot. # 2 for  O read from file:
     /home/alatimer/bin/psp/esp_psp_w_gbrvRu/O.UPF
     MD5 check sum: e057bbcf3229fb5d8c36c0c92f9568b4
     Pseudo is Ultrasoft + core correction, Zval =  6.0
     Generated using "atomic" code by A. Dal Corso  v.5.0.2 svn rev. 9415
     Using radial grid of 1095 points,  4 beta functions with: 
                l(1) =   0
                l(2) =   0
                l(3) =   1
                l(4) =   1
     Q(r) pseudized with 0 coefficients 


     atomic species   valence    mass     pseudopotential
        Co1            9.00    58.93320     Co( 1.00)
        O1             6.00    15.99940      O( 1.00)

     Starting magnetic structure 
     atomic species   magnetization
        Co1          0.444
        O1           0.667

     No symmetry found



   Cartesian axes

     site n.     atom                  positions (alat units)
         1           Co1 tau(   1) = (   4.1277161   1.2638498  24.0265242  )
         2           Co1 tau(   2) = (   4.1277161   3.7915494  24.0265242  )
         3           Co1 tau(   3) = (   4.1277161   6.3192490  24.0265242  )
         4           Co1 tau(   4) = (   2.0638581   0.0000000  23.2968402  )
         5           Co1 tau(   5) = (   2.0638581   2.5276996  23.2968402  )
         6           Co1 tau(   6) = (   2.0638581   5.0553992  23.2968402  )
         7           Co1 tau(   7) = (   0.0000000   1.2638498  22.5671562  )
         8           Co1 tau(   8) = (   0.0000000   3.7915494  22.5671562  )
         9           Co1 tau(   9) = (   0.0000000   6.3192490  22.5671562  )
        10           Co1 tau(  10) = (   4.1277161   0.0000000  21.8374721  )
        11           Co1 tau(  11) = (   4.1277161   2.5276996  21.8374721  )
        12           Co1 tau(  12) = (   4.1277161   5.0553992  21.8374721  )
        13           Co1 tau(  13) = (   2.0638581   1.2638498  21.1077881  )
        14           Co1 tau(  14) = (   2.0638581   3.7915494  21.1077881  )
        15           Co1 tau(  15) = (   2.0638581   6.3192490  21.1077881  )
        16           Co1 tau(  16) = (   0.0000000   0.0000000  20.3781041  )
        17           Co1 tau(  17) = (   0.0000000   2.5276996  20.3781041  )
        18           Co1 tau(  18) = (   0.0000000   5.0553992  20.3781041  )
        19           Co1 tau(  19) = (   4.1277161   1.2638498  19.6484201  )
        20           Co1 tau(  20) = (   4.1277161   3.7915494  19.6484201  )
        21           Co1 tau(  21) = (   4.1277161   6.3192490  19.6484201  )
        22           Co1 tau(  22) = (   2.0638581   0.0000000  18.9187361  )
        23           Co1 tau(  23) = (   2.0638581   2.5276996  18.9187361  )
        24           Co1 tau(  24) = (   2.0638581   5.0553992  18.9187361  )
        25           Co1 tau(  25) = (   0.0000000   1.2638498  18.1890521  )
        26           Co1 tau(  26) = (   0.0000000   3.7915494  18.1890521  )
        27           Co1 tau(  27) = (   0.0000000   6.3192490  18.1890521  )
        28           Co1 tau(  28) = (   4.1277161   0.0000000  17.4593680  )
        29           Co1 tau(  29) = (   4.1277161   2.5276996  17.4593680  )
        30           Co1 tau(  30) = (   4.1277161   5.0553992  17.4593680  )
        31           Co1 tau(  31) = (   2.0638581   1.2638498  16.7296840  )
        32           Co1 tau(  32) = (   2.0638581   3.7915494  16.7296840  )
        33           Co1 tau(  33) = (   2.0638581   6.3192490  16.7296840  )
        34           Co1 tau(  34) = (   0.0000000   0.0000000  16.0000000  )
        35           Co1 tau(  35) = (   0.0000000   2.5276996  16.0000000  )
        36           Co1 tau(  36) = (   0.0000000   5.0553992  16.0000000  )
        37           O1  tau(  37) = (   2.0638581   1.2638498  24.6968402  )

     number of k points=    10  Fermi-Dirac smearing, width (Ry)=  0.0073
                       cart. coord. in units 2pi/alat
        k(    1) = (   0.0000000   0.0000000   0.0000000), wk =   0.1111111
        k(    2) = (   0.0000000   0.0439574   0.0000000), wk =   0.2222222
        k(    3) = (   0.0538366   0.0000000   0.0000000), wk =   0.2222222
        k(    4) = (   0.0538366   0.0439574   0.0000000), wk =   0.2222222
        k(    5) = (   0.0538366  -0.0439574   0.0000000), wk =   0.2222222
        k(    6) = (   0.0000000   0.0000000   0.0000000), wk =   0.1111111
        k(    7) = (   0.0000000   0.0439574   0.0000000), wk =   0.2222222
        k(    8) = (   0.0538366   0.0000000   0.0000000), wk =   0.2222222
        k(    9) = (   0.0538366   0.0439574   0.0000000), wk =   0.2222222
        k(   10) = (   0.0538366  -0.0439574   0.0000000), wk =   0.2222222

     Dense  grid:  1983193 G-vectors     FFT dimensions: (  80,  96, 512)

     Smooth grid:   501747 G-vectors     FFT dimensions: (  50,  64, 320)

     Largest allocated arrays     est. size (Mb)     dimensions
        Kohn-Sham Wavefunctions        16.00 Mb     (    3956,  265)
        NL pseudopotentials            28.73 Mb     (    3956,  476)
        Each V/rho on FFT grid          7.50 Mb     (  245760,   2)
        Each G-vector array             0.95 Mb     (  123962)
        G-vector shells                 0.41 Mb     (   54356)
     Largest temporary arrays     est. size (Mb)     dimensions
        Auxiliary wavefunctions        63.99 Mb     (    3956, 1060)
        Each subspace H/S matrix       17.14 Mb     (    1060, 1060)
        Each <psi_i|beta_j> matrix      1.92 Mb     (     476,  265)
        Arrays for rho mixing          37.50 Mb     (  245760,   10)

     Check: negative/imaginary core charge=   -0.000002    0.000000

     Initial potential from superposition of free atoms
     Check: negative starting charge=(component1):   -0.004334
     Check: negative starting charge=(component2):   -0.001664

     starting charge  329.99032, renormalised to  330.00000

     negative rho (up, down):  4.334E-03 1.664E-03
 
     Adding external electric field

     Computed dipole along edir(3) : 
        Dipole               -0.0015 Ry au,         -0.0039 Debye
        Dipole field         -0.0000 Ry au
 
        Potential amp.        0.0002 Ry
        Total length         73.7482 bohr
 
 
     Adding external electric field

     Computed dipole along edir(3) : 
        Dipole               -0.0015 Ry au,         -0.0039 Debye
        Dipole field         -0.0000 Ry au
 
        Potential amp.        0.0002 Ry
        Total length         73.7482 bohr
 
     Starting wfc are  328 randomized atomic wfcs

     total cpu time spent up to now is       48.9 secs

     Self-consistent Calculation

     iteration #  1     ecut=    44.10 Ry     beta=0.10
     Davidson diagonalization with overlap
     ethr =  1.00E-02,  avg # of iterations =  7.7

     negative rho (up, down):  4.223E-03 1.938E-03
 
     Adding external electric field

     Computed dipole along edir(3) : 
        Dipole               -0.0565 Ry au,         -0.1437 Debye
        Dipole field         -0.0001 Ry au
 
        Potential amp.        0.0083 Ry
        Total length         73.7482 bohr
 
 
     Adding external electric field

     Computed dipole along edir(3) : 
        Dipole               -0.0565 Ry au,         -0.1437 Debye
        Dipole field         -0.0001 Ry au
 
        Potential amp.        0.0083 Ry
        Total length         73.7482 bohr
 
 
     Magnetic moment per site:
     atom:    1    charge:    3.1722    magn:    1.4279    constr:    0.0000
     atom:    2    charge:    3.1735    magn:    1.4245    constr:    0.0000
     atom:    3    charge:    3.1735    magn:    1.4245    constr:    0.0000
     atom:    4    charge:    3.2054    magn:    1.3952    constr:    0.0000
     atom:    5    charge:    3.2053    magn:    1.3952    constr:    0.0000
     atom:    6    charge:    3.2038    magn:    1.3955    constr:    0.0000
     atom:    7    charge:    3.2141    magn:    1.3844    constr:    0.0000
     atom:    8    charge:    3.2163    magn:    1.3821    constr:    0.0000
     atom:    9    charge:    3.2164    magn:    1.3821    constr:    0.0000
     atom:   10    charge:    3.2303    magn:    1.3682    constr:    0.0000
     atom:   11    charge:    3.2303    magn:    1.3682    constr:    0.0000
     atom:   12    charge:    3.2303    magn:    1.3683    constr:    0.0000
     atom:   13    charge:    3.2305    magn:    1.3694    constr:    0.0000
     atom:   14    charge:    3.2307    magn:    1.3687    constr:    0.0000
     atom:   15    charge:    3.2307    magn:    1.3687    constr:    0.0000
     atom:   16    charge:    3.2307    magn:    1.3685    constr:    0.0000
     atom:   17    charge:    3.2307    magn:    1.3685    constr:    0.0000
     atom:   18    charge:    3.2307    magn:    1.3687    constr:    0.0000
     atom:   19    charge:    3.2301    magn:    1.3686    constr:    0.0000
     atom:   20    charge:    3.2300    magn:    1.3687    constr:    0.0000
     atom:   21    charge:    3.2300    magn:    1.3687    constr:    0.0000
     atom:   22    charge:    3.2306    magn:    1.3691    constr:    0.0000
     atom:   23    charge:    3.2306    magn:    1.3691    constr:    0.0000
     atom:   24    charge:    3.2301    magn:    1.3693    constr:    0.0000
     atom:   25    charge:    3.2305    magn:    1.3683    constr:    0.0000
     atom:   26    charge:    3.2303    magn:    1.3684    constr:    0.0000
     atom:   27    charge:    3.2303    magn:    1.3684    constr:    0.0000
     atom:   28    charge:    3.2162    magn:    1.3814    constr:    0.0000
     atom:   29    charge:    3.2162    magn:    1.3814    constr:    0.0000
     atom:   30    charge:    3.2158    magn:    1.3816    constr:    0.0000
     atom:   31    charge:    3.2029    magn:    1.3957    constr:    0.0000
     atom:   32    charge:    3.2028    magn:    1.3956    constr:    0.0000
     atom:   33    charge:    3.2028    magn:    1.3956    constr:    0.0000
     atom:   34    charge:    3.1748    magn:    1.4231    constr:    0.0000
     atom:   35    charge:    3.1748    magn:    1.4231    constr:    0.0000
     atom:   36    charge:    3.1749    magn:    1.4230    constr:    0.0000
     atom:   37    charge:    2.0047    magn:    1.2566    constr:    0.0000

     total cpu time spent up to now is      201.4 secs

     total energy              =   -2913.32437440 Ry
     Harris-Foulkes estimate   =   -2916.96445035 Ry
     estimated scf accuracy    <      23.99914616 Ry

     total magnetization       =    75.84 Bohr mag/cell
     absolute magnetization    =    75.90 Bohr mag/cell

     iteration #  2     ecut=    44.10 Ry     beta=0.10
     Davidson diagonalization with overlap
     ethr =  7.27E-03,  avg # of iterations =  3.3

     negative rho (up, down):  5.297E-03 3.102E-03
 
     Adding external electric field

     Computed dipole along edir(3) : 
        Dipole               -0.0582 Ry au,         -0.1479 Debye
        Dipole field         -0.0001 Ry au
 
        Potential amp.        0.0085 Ry
        Total length         73.7482 bohr
 
 
     Adding external electric field

     Computed dipole along edir(3) : 
        Dipole               -0.0582 Ry au,         -0.1479 Debye
        Dipole field         -0.0001 Ry au
 
        Potential amp.        0.0085 Ry
        Total length         73.7482 bohr
 
 
     Magnetic moment per site:
     atom:    1    charge:    3.2011    magn:    1.3987    constr:    0.0000
     atom:    2    charge:    3.2021    magn:    1.3952    constr:    0.0000
     atom:    3    charge:    3.2021    magn:    1.3952    constr:    0.0000
     atom:    4    charge:    3.2242    magn:    1.3721    constr:    0.0000
     atom:    5    charge:    3.2242    magn:    1.3721    constr:    0.0000
     atom:    6    charge:    3.2239    magn:    1.3707    constr:    0.0000
     atom:    7    charge:    3.2236    magn:    1.3673    constr:    0.0000
     atom:    8    charge:    3.2241    magn:    1.3660    constr:    0.0000
     atom:    9    charge:    3.2241    magn:    1.3660    constr:    0.0000
     atom:   10    charge:    3.2175    magn:    1.3672    constr:    0.0000
     atom:   11    charge:    3.2175    magn:    1.3672    constr:    0.0000
     atom:   12    charge:    3.2173    magn:    1.3676    constr:    0.0000
     atom:   13    charge:    3.2089    magn:    1.3725    constr:    0.0000
     atom:   14    charge:    3.2090    magn:    1.3715    constr:    0.0000
     atom:   15    charge:    3.2090    magn:    1.3715    constr:    0.0000
     atom:   16    charge:    3.2042    magn:    1.3711    constr:    0.0000
     atom:   17    charge:    3.2042    magn:    1.3711    constr:    0.0000
     atom:   18    charge:    3.2043    magn:    1.3715    constr:    0.0000
     atom:   19    charge:    3.2039    magn:    1.3714    constr:    0.0000
     atom:   20    charge:    3.2039    magn:    1.3715    constr:    0.0000
     atom:   21    charge:    3.2039    magn:    1.3715    constr:    0.0000
     atom:   22    charge:    3.2092    magn:    1.3719    constr:    0.0000
     atom:   23    charge:    3.2092    magn:    1.3720    constr:    0.0000
     atom:   24    charge:    3.2088    magn:    1.3721    constr:    0.0000
     atom:   25    charge:    3.2181    magn:    1.3671    constr:    0.0000
     atom:   26    charge:    3.2181    magn:    1.3671    constr:    0.0000
     atom:   27    charge:    3.2181    magn:    1.3671    constr:    0.0000
     atom:   28    charge:    3.2248    magn:    1.3646    constr:    0.0000
     atom:   29    charge:    3.2248    magn:    1.3646    constr:    0.0000
     atom:   30    charge:    3.2246    magn:    1.3646    constr:    0.0000
     atom:   31    charge:    3.2236    magn:    1.3704    constr:    0.0000
     atom:   32    charge:    3.2235    magn:    1.3703    constr:    0.0000
     atom:   33    charge:    3.2235    magn:    1.3703    constr:    0.0000
     atom:   34    charge:    3.2033    magn:    1.3939    constr:    0.0000
     atom:   35    charge:    3.2033    magn:    1.3939    constr:    0.0000
     atom:   36    charge:    3.2034    magn:    1.3938    constr:    0.0000
     atom:   37    charge:    2.0133    magn:    1.2360    constr:    0.0000

     total cpu time spent up to now is      306.9 secs

     total energy              =   -2912.95267425 Ry
     Harris-Foulkes estimate   =   -2923.20353614 Ry
     estimated scf accuracy    <     242.83117671 Ry

     total magnetization       =    73.04 Bohr mag/cell
     absolute magnetization    =    73.27 Bohr mag/cell

     iteration #  3     ecut=    44.10 Ry     beta=0.10
     Davidson diagonalization with overlap
     ethr =  7.27E-03,  avg # of iterations =  1.0

     negative rho (up, down):  7.315E-03 4.790E-03
 
     Adding external electric field

     Computed dipole along edir(3) : 
        Dipole               -0.1049 Ry au,         -0.2667 Debye
        Dipole field         -0.0001 Ry au
 
        Potential amp.        0.0153 Ry
        Total length         73.7482 bohr
 
 
     Adding external electric field

     Computed dipole along edir(3) : 
        Dipole               -0.1049 Ry au,         -0.2667 Debye
        Dipole field         -0.0001 Ry au
 
        Potential amp.        0.0153 Ry
        Total length         73.7482 bohr
 
 
     Magnetic moment per site:
     atom:    1    charge:    3.2181    magn:    1.3772    constr:    0.0000
     atom:    2    charge:    3.2179    magn:    1.3744    constr:    0.0000
     atom:    3    charge:    3.2179    magn:    1.3744    constr:    0.0000
     atom:    4    charge:    3.2165    magn:    1.3696    constr:    0.0000
     atom:    5    charge:    3.2165    magn:    1.3696    constr:    0.0000
     atom:    6    charge:    3.2170    magn:    1.3677    constr:    0.0000
     atom:    7    charge:    3.2146    magn:    1.3655    constr:    0.0000
     atom:    8    charge:    3.2149    magn:    1.3642    constr:    0.0000
     atom:    9    charge:    3.2149    magn:    1.3642    constr:    0.0000
     atom:   10    charge:    3.2132    magn:    1.3607    constr:    0.0000
     atom:   11    charge:    3.2132    magn:    1.3607    constr:    0.0000
     atom:   12    charge:    3.2131    magn:    1.3612    constr:    0.0000
     atom:   13    charge:    3.2097    magn:    1.3627    constr:    0.0000
     atom:   14    charge:    3.2097    magn:    1.3618    constr:    0.0000
     atom:   15    charge:    3.2097    magn:    1.3618    constr:    0.0000
     atom:   16    charge:    3.2083    magn:    1.3592    constr:    0.0000
     atom:   17    charge:    3.2083    magn:    1.3592    constr:    0.0000
     atom:   18    charge:    3.2084    magn:    1.3595    constr:    0.0000
     atom:   19    charge:    3.2080    magn:    1.3595    constr:    0.0000
     atom:   20    charge:    3.2079    magn:    1.3596    constr:    0.0000
     atom:   21    charge:    3.2079    magn:    1.3596    constr:    0.0000
     atom:   22    charge:    3.2098    magn:    1.3624    constr:    0.0000
     atom:   23    charge:    3.2098    magn:    1.3624    constr:    0.0000
     atom:   24    charge:    3.2096    magn:    1.3622    constr:    0.0000
     atom:   25    charge:    3.2134    magn:    1.3610    constr:    0.0000
     atom:   26    charge:    3.2134    magn:    1.3609    constr:    0.0000
     atom:   27    charge:    3.2134    magn:    1.3609    constr:    0.0000
     atom:   28    charge:    3.2149    magn:    1.3631    constr:    0.0000
     atom:   29    charge:    3.2149    magn:    1.3631    constr:    0.0000
     atom:   30    charge:    3.2149    magn:    1.3629    constr:    0.0000
     atom:   31    charge:    3.2174    magn:    1.3667    constr:    0.0000
     atom:   32    charge:    3.2175    magn:    1.3665    constr:    0.0000
     atom:   33    charge:    3.2175    magn:    1.3665    constr:    0.0000
     atom:   34    charge:    3.2190    magn:    1.3731    constr:    0.0000
     atom:   35    charge:    3.2190    magn:    1.3731    constr:    0.0000
     atom:   36    charge:    3.2191    magn:    1.3731    constr:    0.0000
     atom:   37    charge:    2.0163    magn:    1.2174    constr:    0.0000

     total cpu time spent up to now is      400.3 secs

     total energy              =   -2916.74615841 Ry
     Harris-Foulkes estimate   =   -2917.22187335 Ry
     estimated scf accuracy    <      14.47237750 Ry

     total magnetization       =    75.46 Bohr mag/cell
     absolute magnetization    =    75.58 Bohr mag/cell

     iteration #  4     ecut=    44.10 Ry     beta=0.10
     Davidson diagonalization with overlap
     ethr =  4.39E-03,  avg # of iterations =  1.0

     negative rho (up, down):  7.477E-03 5.342E-03
 
     Adding external electric field

     Computed dipole along edir(3) : 
        Dipole                0.6438 Ry au,          1.6364 Debye
        Dipole field          0.0006 Ry au
 
        Potential amp.       -0.0941 Ry
        Total length         73.7482 bohr
 
 
     Adding external electric field

     Computed dipole along edir(3) : 
        Dipole                0.6438 Ry au,          1.6364 Debye
        Dipole field          0.0006 Ry au
 
        Potential amp.       -0.0941 Ry
        Total length         73.7482 bohr
 
 
     Magnetic moment per site:
     atom:    1    charge:    3.2229    magn:    1.3496    constr:    0.0000
     atom:    2    charge:    3.2245    magn:    1.3442    constr:    0.0000
     atom:    3    charge:    3.2245    magn:    1.3442    constr:    0.0000
     atom:    4    charge:    3.2136    magn:    1.3450    constr:    0.0000
     atom:    5    charge:    3.2136    magn:    1.3450    constr:    0.0000
     atom:    6    charge:    3.2178    magn:    1.3399    constr:    0.0000
     atom:    7    charge:    3.2110    magn:    1.3398    constr:    0.0000
     atom:    8    charge:    3.2107    magn:    1.3385    constr:    0.0000
     atom:    9    charge:    3.2107    magn:    1.3385    constr:    0.0000
     atom:   10    charge:    3.2031    magn:    1.3368    constr:    0.0000
     atom:   11    charge:    3.2031    magn:    1.3368    constr:    0.0000
     atom:   12    charge:    3.2038    magn:    1.3370    constr:    0.0000
     atom:   13    charge:    3.2056    magn:    1.3354    constr:    0.0000
     atom:   14    charge:    3.2058    magn:    1.3338    constr:    0.0000
     atom:   15    charge:    3.2058    magn:    1.3339    constr:    0.0000
     atom:   16    charge:    3.2059    magn:    1.3313    constr:    0.0000
     atom:   17    charge:    3.2059    magn:    1.3313    constr:    0.0000
     atom:   18    charge:    3.2059    magn:    1.3318    constr:    0.0000
     atom:   19    charge:    3.2056    magn:    1.3315    constr:    0.0000
     atom:   20    charge:    3.2057    magn:    1.3317    constr:    0.0000
     atom:   21    charge:    3.2057    magn:    1.3316    constr:    0.0000
     atom:   22    charge:    3.2065    magn:    1.3342    constr:    0.0000
     atom:   23    charge:    3.2065    magn:    1.3342    constr:    0.0000
     atom:   24    charge:    3.2064    magn:    1.3335    constr:    0.0000
     atom:   25    charge:    3.2052    magn:    1.3356    constr:    0.0000
     atom:   26    charge:    3.2051    magn:    1.3357    constr:    0.0000
     atom:   27    charge:    3.2052    magn:    1.3357    constr:    0.0000
     atom:   28    charge:    3.2131    magn:    1.3349    constr:    0.0000
     atom:   29    charge:    3.2131    magn:    1.3349    constr:    0.0000
     atom:   30    charge:    3.2131    magn:    1.3346    constr:    0.0000
     atom:   31    charge:    3.2217    magn:    1.3353    constr:    0.0000
     atom:   32    charge:    3.2217    magn:    1.3352    constr:    0.0000
     atom:   33    charge:    3.2217    magn:    1.3352    constr:    0.0000
     atom:   34    charge:    3.2321    magn:    1.3363    constr:    0.0000
     atom:   35    charge:    3.2321    magn:    1.3363    constr:    0.0000
     atom:   36    charge:    3.2320    magn:    1.3363    constr:    0.0000
     atom:   37    charge:    2.0247    magn:    1.1581    constr:    0.0000

     total cpu time spent up to now is      493.6 secs

     total energy              =   -2917.04295011 Ry
     Harris-Foulkes estimate   =   -2916.96831469 Ry
     estimated scf accuracy    <       3.03909963 Ry

     total magnetization       =    75.72 Bohr mag/cell
     absolute magnetization    =    75.83 Bohr mag/cell

     iteration #  5     ecut=    44.10 Ry     beta=0.10
     Davidson diagonalization with overlap
     ethr =  9.21E-04,  avg # of iterations =  7.2

     negative rho (up, down):  5.938E-03 5.061E-03
 
     Adding external electric field

     Computed dipole along edir(3) : 
        Dipole               -0.1733 Ry au,         -0.4404 Debye
        Dipole field         -0.0002 Ry au
 
        Potential amp.        0.0253 Ry
        Total length         73.7482 bohr
 
 
     Adding external electric field

     Computed dipole along edir(3) : 
        Dipole               -0.1733 Ry au,         -0.4404 Debye
        Dipole field         -0.0002 Ry au
 
        Potential amp.        0.0253 Ry
        Total length         73.7482 bohr
 
 
     Magnetic moment per site:
     atom:    1    charge:    3.2379    magn:    1.2990    constr:    0.0000
     atom:    2    charge:    3.2418    magn:    1.2898    constr:    0.0000
     atom:    3    charge:    3.2419    magn:    1.2898    constr:    0.0000
     atom:    4    charge:    3.2144    magn:    1.3015    constr:    0.0000
     atom:    5    charge:    3.2144    magn:    1.3015    constr:    0.0000
     atom:    6    charge:    3.2239    magn:    1.2917    constr:    0.0000
     atom:    7    charge:    3.2107    magn:    1.2947    constr:    0.0000
     atom:    8    charge:    3.2090    magn:    1.2938    constr:    0.0000
     atom:    9    charge:    3.2090    magn:    1.2938    constr:    0.0000
     atom:   10    charge:    3.1918    magn:    1.2956    constr:    0.0000
     atom:   11    charge:    3.1918    magn:    1.2956    constr:    0.0000
     atom:   12    charge:    3.1934    magn:    1.2955    constr:    0.0000
     atom:   13    charge:    3.2007    magn:    1.2909    constr:    0.0000
     atom:   14    charge:    3.2013    magn:    1.2885    constr:    0.0000
     atom:   15    charge:    3.2012    magn:    1.2886    constr:    0.0000
     atom:   16    charge:    3.2020    magn:    1.2873    constr:    0.0000
     atom:   17    charge:    3.2020    magn:    1.2873    constr:    0.0000
     atom:   18    charge:    3.2020    magn:    1.2880    constr:    0.0000
     atom:   19    charge:    3.2011    magn:    1.2880    constr:    0.0000
     atom:   20    charge:    3.2011    magn:    1.2883    constr:    0.0000
     atom:   21    charge:    3.2011    magn:    1.2883    constr:    0.0000
     atom:   22    charge:    3.1997    magn:    1.2913    constr:    0.0000
     atom:   23    charge:    3.1997    magn:    1.2913    constr:    0.0000
     atom:   24    charge:    3.1996    magn:    1.2900    constr:    0.0000
     atom:   25    charge:    3.1910    magn:    1.2970    constr:    0.0000
     atom:   26    charge:    3.1909    magn:    1.2971    constr:    0.0000
     atom:   27    charge:    3.1910    magn:    1.2971    constr:    0.0000
     atom:   28    charge:    3.2070    magn:    1.2932    constr:    0.0000
     atom:   29    charge:    3.2070    magn:    1.2932    constr:    0.0000
     atom:   30    charge:    3.2071    magn:    1.2927    constr:    0.0000
     atom:   31    charge:    3.2224    magn:    1.2908    constr:    0.0000
     atom:   32    charge:    3.2224    magn:    1.2908    constr:    0.0000
     atom:   33    charge:    3.2224    magn:    1.2908    constr:    0.0000
     atom:   34    charge:    3.2435    magn:    1.2861    constr:    0.0000
     atom:   35    charge:    3.2435    magn:    1.2861    constr:    0.0000
     atom:   36    charge:    3.2433    magn:    1.2862    constr:    0.0000
     atom:   37    charge:    2.0387    magn:    1.0639    constr:    0.0000

     total cpu time spent up to now is      622.9 secs

     total energy              =   -2916.78661904 Ry
     Harris-Foulkes estimate   =   -2917.76314439 Ry
     estimated scf accuracy    <     132.48029567 Ry

     total magnetization       =    74.94 Bohr mag/cell
     absolute magnetization    =    75.15 Bohr mag/cell

     iteration #  6     ecut=    44.10 Ry     beta=0.10
     Davidson diagonalization with overlap
     ethr =  9.21E-04,  avg # of iterations =  4.7

     negative rho (up, down):  5.187E-03 5.010E-03
 
     Adding external electric field

     Computed dipole along edir(3) : 
        Dipole               -0.1751 Ry au,         -0.4450 Debye
        Dipole field         -0.0002 Ry au
 
        Potential amp.        0.0256 Ry
        Total length         73.7482 bohr
 
 
     Adding external electric field

     Computed dipole along edir(3) : 
        Dipole               -0.1751 Ry au,         -0.4450 Debye
        Dipole field         -0.0002 Ry au
 
        Potential amp.        0.0256 Ry
        Total length         73.7482 bohr
 
 
     Magnetic moment per site:
     atom:    1    charge:    3.2462    magn:    1.2604    constr:    0.0000
     atom:    2    charge:    3.2442    magn:    1.2548    constr:    0.0000
     atom:    3    charge:    3.2442    magn:    1.2548    constr:    0.0000
     atom:    4    charge:    3.2116    magn:    1.2690    constr:    0.0000
     atom:    5    charge:    3.2116    magn:    1.2690    constr:    0.0000
     atom:    6    charge:    3.2157    magn:    1.2625    constr:    0.0000
     atom:    7    charge:    3.2092    magn:    1.2593    constr:    0.0000
     atom:    8    charge:    3.2071    magn:    1.2582    constr:    0.0000
     atom:    9    charge:    3.2071    magn:    1.2582    constr:    0.0000
     atom:   10    charge:    3.1946    magn:    1.2551    constr:    0.0000
     atom:   11    charge:    3.1946    magn:    1.2551    constr:    0.0000
     atom:   12    charge:    3.1944    magn:    1.2567    constr:    0.0000
     atom:   13    charge:    3.1950    magn:    1.2571    constr:    0.0000
     atom:   14    charge:    3.1941    magn:    1.2554    constr:    0.0000
     atom:   15    charge:    3.1941    magn:    1.2554    constr:    0.0000
     atom:   16    charge:    3.1972    magn:    1.2526    constr:    0.0000
     atom:   17    charge:    3.1972    magn:    1.2526    constr:    0.0000
     atom:   18    charge:    3.1971    magn:    1.2535    constr:    0.0000
     atom:   19    charge:    3.1970    magn:    1.2527    constr:    0.0000
     atom:   20    charge:    3.1970    magn:    1.2532    constr:    0.0000
     atom:   21    charge:    3.1970    magn:    1.2532    constr:    0.0000
     atom:   22    charge:    3.1950    magn:    1.2566    constr:    0.0000
     atom:   23    charge:    3.1950    magn:    1.2566    constr:    0.0000
     atom:   24    charge:    3.1948    magn:    1.2549    constr:    0.0000
     atom:   25    charge:    3.1952    magn:    1.2554    constr:    0.0000
     atom:   26    charge:    3.1952    magn:    1.2554    constr:    0.0000
     atom:   27    charge:    3.1952    magn:    1.2555    constr:    0.0000
     atom:   28    charge:    3.2082    magn:    1.2546    constr:    0.0000
     atom:   29    charge:    3.2082    magn:    1.2546    constr:    0.0000
     atom:   30    charge:    3.2084    magn:    1.2539    constr:    0.0000
     atom:   31    charge:    3.2177    magn:    1.2584    constr:    0.0000
     atom:   32    charge:    3.2178    magn:    1.2583    constr:    0.0000
     atom:   33    charge:    3.2178    magn:    1.2582    constr:    0.0000
     atom:   34    charge:    3.2448    magn:    1.2508    constr:    0.0000
     atom:   35    charge:    3.2448    magn:    1.2508    constr:    0.0000
     atom:   36    charge:    3.2448    magn:    1.2507    constr:    0.0000
     atom:   37    charge:    2.0498    magn:    0.9861    constr:    0.0000

     total cpu time spent up to now is      733.1 secs

     total energy              =   -2917.73694304 Ry
     Harris-Foulkes estimate   =   -2917.57611469 Ry
     estimated scf accuracy    <       5.22615423 Ry

     total magnetization       =    74.55 Bohr mag/cell
     absolute magnetization    =    74.78 Bohr mag/cell

     iteration #  7     ecut=    44.10 Ry     beta=0.10
     Davidson diagonalization with overlap
     ethr =  9.21E-04,  avg # of iterations =  1.0

     negative rho (up, down):  5.412E-03 5.537E-03
 
     Adding external electric field

     Computed dipole along edir(3) : 
        Dipole               -0.1431 Ry au,         -0.3638 Debye
        Dipole field         -0.0001 Ry au
 
        Potential amp.        0.0209 Ry
        Total length         73.7482 bohr
 
 
     Adding external electric field

     Computed dipole along edir(3) : 
        Dipole               -0.1431 Ry au,         -0.3638 Debye
        Dipole field         -0.0001 Ry au
 
        Potential amp.        0.0209 Ry
        Total length         73.7482 bohr
 
 
     Magnetic moment per site:
     atom:    1    charge:    3.2330    magn:    1.2509    constr:    0.0000
     atom:    2    charge:    3.2365    magn:    1.2408    constr:    0.0000
     atom:    3    charge:    3.2365    magn:    1.2408    constr:    0.0000
     atom:    4    charge:    3.2100    magn:    1.2506    constr:    0.0000
     atom:    5    charge:    3.2100    magn:    1.2505    constr:    0.0000
     atom:    6    charge:    3.2173    magn:    1.2407    constr:    0.0000
     atom:    7    charge:    3.2085    magn:    1.2394    constr:    0.0000
     atom:    8    charge:    3.2082    magn:    1.2367    constr:    0.0000
     atom:    9    charge:    3.2082    magn:    1.2367    constr:    0.0000
     atom:   10    charge:    3.1970    magn:    1.2335    constr:    0.0000
     atom:   11    charge:    3.1970    magn:    1.2335    constr:    0.0000
     atom:   12    charge:    3.1983    magn:    1.2338    constr:    0.0000
     atom:   13    charge:    3.1966    magn:    1.2358    constr:    0.0000
     atom:   14    charge:    3.1978    magn:    1.2319    constr:    0.0000
     atom:   15    charge:    3.1978    magn:    1.2319    constr:    0.0000
     atom:   16    charge:    3.1967    magn:    1.2317    constr:    0.0000
     atom:   17    charge:    3.1967    magn:    1.2317    constr:    0.0000
     atom:   18    charge:    3.1973    magn:    1.2322    constr:    0.0000
     atom:   19    charge:    3.1958    magn:    1.2324    constr:    0.0000
     atom:   20    charge:    3.1961    magn:    1.2328    constr:    0.0000
     atom:   21    charge:    3.1961    magn:    1.2328    constr:    0.0000
     atom:   22    charge:    3.1967    magn:    1.2351    constr:    0.0000
     atom:   23    charge:    3.1967    magn:    1.2351    constr:    0.0000
     atom:   24    charge:    3.1966    magn:    1.2329    constr:    0.0000
     atom:   25    charge:    3.1968    magn:    1.2342    constr:    0.0000
     atom:   26    charge:    3.1971    magn:    1.2340    constr:    0.0000
     atom:   27    charge:    3.1971    magn:    1.2340    constr:    0.0000
     atom:   28    charge:    3.2058    magn:    1.2353    constr:    0.0000
     atom:   29    charge:    3.2058    magn:    1.2353    constr:    0.0000
     atom:   30    charge:    3.2059    magn:    1.2344    constr:    0.0000
     atom:   31    charge:    3.2163    magn:    1.2388    constr:    0.0000
     atom:   32    charge:    3.2163    magn:    1.2386    constr:    0.0000
     atom:   33    charge:    3.2163    magn:    1.2386    constr:    0.0000
     atom:   34    charge:    3.2371    magn:    1.2359    constr:    0.0000
     atom:   35    charge:    3.2371    magn:    1.2359    constr:    0.0000
     atom:   36    charge:    3.2370    magn:    1.2359    constr:    0.0000
     atom:   37    charge:    2.0538    magn:    0.9401    constr:    0.0000

     total cpu time spent up to now is      826.5 secs

     total energy              =   -2917.84778008 Ry
     Harris-Foulkes estimate   =   -2917.80329254 Ry
     estimated scf accuracy    <       2.79433163 Ry

     total magnetization       =    73.52 Bohr mag/cell
     absolute magnetization    =    73.94 Bohr mag/cell

     iteration #  8     ecut=    44.10 Ry     beta=0.10
     Davidson diagonalization with overlap
     ethr =  8.47E-04,  avg # of iterations =  1.0

     negative rho (up, down):  4.967E-03 6.132E-03
 
     Adding external electric field

     Computed dipole along edir(3) : 
        Dipole               -0.1498 Ry au,         -0.3807 Debye
        Dipole field         -0.0001 Ry au
 
        Potential amp.        0.0219 Ry
        Total length         73.7482 bohr
 
 
     Adding external electric field

     Computed dipole along edir(3) : 
        Dipole               -0.1498 Ry au,         -0.3807 Debye
        Dipole field         -0.0001 Ry au
 
        Potential amp.        0.0219 Ry
        Total length         73.7482 bohr
 
 
     Magnetic moment per site:
     atom:    1    charge:    3.2321    magn:    1.2208    constr:    0.0000
     atom:    2    charge:    3.2284    magn:    1.2166    constr:    0.0000
     atom:    3    charge:    3.2284    magn:    1.2166    constr:    0.0000
     atom:    4    charge:    3.2079    magn:    1.2231    constr:    0.0000
     atom:    5    charge:    3.2079    magn:    1.2231    constr:    0.0000
     atom:    6    charge:    3.2126    magn:    1.2143    constr:    0.0000
     atom:    7    charge:    3.2089    magn:    1.2090    constr:    0.0000
     atom:    8    charge:    3.2056    magn:    1.2084    constr:    0.0000
     atom:    9    charge:    3.2056    magn:    1.2084    constr:    0.0000
     atom:   10    charge:    3.1960    magn:    1.2048    constr:    0.0000
     atom:   11    charge:    3.1960    magn:    1.2048    constr:    0.0000
     atom:   12    charge:    3.1954    magn:    1.2066    constr:    0.0000
     atom:   13    charge:    3.1982    magn:    1.2050    constr:    0.0000
     atom:   14    charge:    3.1973    magn:    1.2022    constr:    0.0000
     atom:   15    charge:    3.1973    magn:    1.2022    constr:    0.0000
     atom:   16    charge:    3.1986    magn:    1.2002    constr:    0.0000
     atom:   17    charge:    3.1986    magn:    1.2002    constr:    0.0000
     atom:   18    charge:    3.1978    magn:    1.2018    constr:    0.0000
     atom:   19    charge:    3.1988    magn:    1.2001    constr:    0.0000
     atom:   20    charge:    3.1982    magn:    1.2013    constr:    0.0000
     atom:   21    charge:    3.1982    magn:    1.2013    constr:    0.0000
     atom:   22    charge:    3.1985    magn:    1.2042    constr:    0.0000
     atom:   23    charge:    3.1985    magn:    1.2042    constr:    0.0000
     atom:   24    charge:    3.1977    magn:    1.2018    constr:    0.0000
     atom:   25    charge:    3.1966    magn:    1.2047    constr:    0.0000
     atom:   26    charge:    3.1963    magn:    1.2050    constr:    0.0000
     atom:   27    charge:    3.1963    magn:    1.2050    constr:    0.0000
     atom:   28    charge:    3.2064    magn:    1.2040    constr:    0.0000
     atom:   29    charge:    3.2064    magn:    1.2040    constr:    0.0000
     atom:   30    charge:    3.2061    magn:    1.2032    constr:    0.0000
     atom:   31    charge:    3.2128    magn:    1.2108    constr:    0.0000
     atom:   32    charge:    3.2126    magn:    1.2107    constr:    0.0000
     atom:   33    charge:    3.2126    magn:    1.2107    constr:    0.0000
     atom:   34    charge:    3.2265    magn:    1.2126    constr:    0.0000
     atom:   35    charge:    3.2266    magn:    1.2126    constr:    0.0000
     atom:   36    charge:    3.2262    magn:    1.2128    constr:    0.0000
     atom:   37    charge:    2.0566    magn:    0.8715    constr:    0.0000

     total cpu time spent up to now is      919.8 secs

     total energy              =   -2918.06801401 Ry
     Harris-Foulkes estimate   =   -2917.89926463 Ry
     estimated scf accuracy    <       0.70751900 Ry

     total magnetization       =    72.49 Bohr mag/cell
     absolute magnetization    =    73.09 Bohr mag/cell

     iteration #  9     ecut=    44.10 Ry     beta=0.10
     Davidson diagonalization with overlap
     c_bands:  1 eigenvalues not converged
     ethr =  2.14E-04,  avg # of iterations = 11.5

     negative rho (up, down):  6.235E-03 8.348E-03
 
     Adding external electric field

     Computed dipole along edir(3) : 
        Dipole               -0.0987 Ry au,         -0.2509 Debye
        Dipole field         -0.0001 Ry au
 
        Potential amp.        0.0144 Ry
        Total length         73.7482 bohr
 
 
     Adding external electric field

     Computed dipole along edir(3) : 
        Dipole               -0.0987 Ry au,         -0.2509 Debye
        Dipole field         -0.0001 Ry au
 
        Potential amp.        0.0144 Ry
        Total length         73.7482 bohr
 
 
     Magnetic moment per site:
     atom:    1    charge:    3.2270    magn:    1.1472    constr:    0.0000
     atom:    2    charge:    3.2298    magn:    1.1366    constr:    0.0000
     atom:    3    charge:    3.2298    magn:    1.1366    constr:    0.0000
     atom:    4    charge:    3.2005    magn:    1.1523    constr:    0.0000
     atom:    5    charge:    3.2005    magn:    1.1523    constr:    0.0000
     atom:    6    charge:    3.2060    magn:    1.1415    constr:    0.0000
     atom:    7    charge:    3.2036    magn:    1.1343    constr:    0.0000
     atom:    8    charge:    3.2018    magn:    1.1319    constr:    0.0000
     atom:    9    charge:    3.2018    magn:    1.1319    constr:    0.0000
     atom:   10    charge:    3.1922    magn:    1.1280    constr:    0.0000
     atom:   11    charge:    3.1922    magn:    1.1280    constr:    0.0000
     atom:   12    charge:    3.1940    magn:    1.1280    constr:    0.0000
     atom:   13    charge:    3.1947    magn:    1.1287    constr:    0.0000
     atom:   14    charge:    3.1944    magn:    1.1239    constr:    0.0000
     atom:   15    charge:    3.1944    magn:    1.1239    constr:    0.0000
     atom:   16    charge:    3.1985    magn:    1.1216    constr:    0.0000
     atom:   17    charge:    3.1985    magn:    1.1216    constr:    0.0000
     atom:   18    charge:    3.1992    magn:    1.1223    constr:    0.0000
     atom:   19    charge:    3.1976    magn:    1.1220    constr:    0.0000
     atom:   20    charge:    3.1984    magn:    1.1226    constr:    0.0000
     atom:   21    charge:    3.1984    magn:    1.1226    constr:    0.0000
     atom:   22    charge:    3.1941    magn:    1.1284    constr:    0.0000
     atom:   23    charge:    3.1941    magn:    1.1284    constr:    0.0000
     atom:   24    charge:    3.1946    magn:    1.1235    constr:    0.0000
     atom:   25    charge:    3.1922    magn:    1.1280    constr:    0.0000
     atom:   26    charge:    3.1929    magn:    1.1275    constr:    0.0000
     atom:   27    charge:    3.1929    magn:    1.1275    constr:    0.0000
     atom:   28    charge:    3.2000    magn:    1.1282    constr:    0.0000
     atom:   29    charge:    3.2000    magn:    1.1282    constr:    0.0000
     atom:   30    charge:    3.2006    magn:    1.1262    constr:    0.0000
     atom:   31    charge:    3.2025    magn:    1.1396    constr:    0.0000
     atom:   32    charge:    3.2031    magn:    1.1387    constr:    0.0000
     atom:   33    charge:    3.2031    magn:    1.1387    constr:    0.0000
     atom:   34    charge:    3.2261    magn:    1.1316    constr:    0.0000
     atom:   35    charge:    3.2261    magn:    1.1316    constr:    0.0000
     atom:   36    charge:    3.2267    magn:    1.1311    constr:    0.0000
     atom:   37    charge:    2.0604    magn:    0.6930    constr:    0.0000

     total cpu time spent up to now is     1060.6 secs

     total energy              =   -2918.43923953 Ry
     Harris-Foulkes estimate   =   -2918.09727709 Ry
     estimated scf accuracy    <       1.08917580 Ry

     total magnetization       =    71.25 Bohr mag/cell
     absolute magnetization    =    72.14 Bohr mag/cell

     iteration # 10     ecut=    44.10 Ry     beta=0.10
     Davidson diagonalization with overlap
     ethr =  2.14E-04,  avg # of iterations =  1.2

     negative rho (up, down):  1.104E-02 1.194E-02
 
     Adding external electric field

     Computed dipole along edir(3) : 
        Dipole               -0.1064 Ry au,         -0.2704 Debye
        Dipole field         -0.0001 Ry au
 
        Potential amp.        0.0155 Ry
        Total length         73.7482 bohr
 
 
     Adding external electric field

     Computed dipole along edir(3) : 
        Dipole               -0.1064 Ry au,         -0.2704 Debye
        Dipole field         -0.0001 Ry au
 
        Potential amp.        0.0155 Ry
        Total length         73.7482 bohr
 
 
     Magnetic moment per site:
     atom:    1    charge:    3.2334    magn:    1.0772    constr:    0.0000
     atom:    2    charge:    3.2303    magn:    1.0705    constr:    0.0000
     atom:    3    charge:    3.2303    magn:    1.0705    constr:    0.0000
     atom:    4    charge:    3.1981    magn:    1.0893    constr:    0.0000
     atom:    5    charge:    3.1981    magn:    1.0893    constr:    0.0000
     atom:    6    charge:    3.2031    magn:    1.0787    constr:    0.0000
     atom:    7    charge:    3.1995    magn:    1.0706    constr:    0.0000
     atom:    8    charge:    3.1958    magn:    1.0695    constr:    0.0000
     atom:    9    charge:    3.1958    magn:    1.0695    constr:    0.0000
     atom:   10    charge:    3.1914    magn:    1.0606    constr:    0.0000
     atom:   11    charge:    3.1914    magn:    1.0605    constr:    0.0000
     atom:   12    charge:    3.1916    magn:    1.0615    constr:    0.0000
     atom:   13    charge:    3.1949    magn:    1.0607    constr:    0.0000
     atom:   14    charge:    3.1950    magn:    1.0542    constr:    0.0000
     atom:   15    charge:    3.1950    magn:    1.0542    constr:    0.0000
     atom:   16    charge:    3.1955    magn:    1.0556    constr:    0.0000
     atom:   17    charge:    3.1955    magn:    1.0556    constr:    0.0000
     atom:   18    charge:    3.1954    magn:    1.0571    constr:    0.0000
     atom:   19    charge:    3.1953    magn:    1.0552    constr:    0.0000
     atom:   20    charge:    3.1948    magn:    1.0571    constr:    0.0000
     atom:   21    charge:    3.1948    magn:    1.0571    constr:    0.0000
     atom:   22    charge:    3.1954    magn:    1.0595    constr:    0.0000
     atom:   23    charge:    3.1954    magn:    1.0595    constr:    0.0000
     atom:   24    charge:    3.1945    magn:    1.0542    constr:    0.0000
     atom:   25    charge:    3.1919    magn:    1.0597    constr:    0.0000
     atom:   26    charge:    3.1914    magn:    1.0602    constr:    0.0000
     atom:   27    charge:    3.1914    magn:    1.0602    constr:    0.0000
     atom:   28    charge:    3.1942    magn:    1.0643    constr:    0.0000
     atom:   29    charge:    3.1942    magn:    1.0643    constr:    0.0000
     atom:   30    charge:    3.1933    magn:    1.0631    constr:    0.0000
     atom:   31    charge:    3.2028    magn:    1.0731    constr:    0.0000
     atom:   32    charge:    3.2022    magn:    1.0730    constr:    0.0000
     atom:   33    charge:    3.2022    magn:    1.0730    constr:    0.0000
     atom:   34    charge:    3.2268    magn:    1.0637    constr:    0.0000
     atom:   35    charge:    3.2268    magn:    1.0637    constr:    0.0000
     atom:   36    charge:    3.2259    magn:    1.0645    constr:    0.0000
     atom:   37    charge:    2.0604    magn:    0.5384    constr:    0.0000

     total cpu time spent up to now is     1154.8 secs

     total energy              =   -2918.74862756 Ry
     Harris-Foulkes estimate   =   -2918.51606050 Ry
     estimated scf accuracy    <       1.15952808 Ry

     total magnetization       =    69.21 Bohr mag/cell
     absolute magnetization    =    71.16 Bohr mag/cell

     iteration # 11     ecut=    44.10 Ry     beta=0.10
     Davidson diagonalization with overlap
     ethr =  2.14E-04,  avg # of iterations =  3.4

     negative rho (up, down):  1.680E-02 1.616E-02
 
     Adding external electric field

     Computed dipole along edir(3) : 
        Dipole               -0.1502 Ry au,         -0.3818 Debye
        Dipole field         -0.0001 Ry au
 
        Potential amp.        0.0220 Ry
        Total length         73.7482 bohr
 
 
     Adding external electric field

     Computed dipole along edir(3) : 
        Dipole               -0.1502 Ry au,         -0.3818 Debye
        Dipole field         -0.0001 Ry au
 
        Potential amp.        0.0220 Ry
        Total length         73.7482 bohr
 
 
     Magnetic moment per site:
     atom:    1    charge:    3.2275    magn:    1.0142    constr:    0.0000
     atom:    2    charge:    3.2263    magn:    1.0077    constr:    0.0000
     atom:    3    charge:    3.2263    magn:    1.0077    constr:    0.0000
     atom:    4    charge:    3.1987    magn:    1.0217    constr:    0.0000
     atom:    5    charge:    3.1987    magn:    1.0217    constr:    0.0000
     atom:    6    charge:    3.2056    magn:    1.0125    constr:    0.0000
     atom:    7    charge:    3.2038    magn:    1.0002    constr:    0.0000
     atom:    8    charge:    3.1982    magn:    1.0013    constr:    0.0000
     atom:    9    charge:    3.1982    magn:    1.0013    constr:    0.0000
     atom:   10    charge:    3.1939    magn:    0.9903    constr:    0.0000
     atom:   11    charge:    3.1939    magn:    0.9903    constr:    0.0000
     atom:   12    charge:    3.1945    magn:    0.9907    constr:    0.0000
     atom:   13    charge:    3.1959    magn:    0.9907    constr:    0.0000
     atom:   14    charge:    3.1966    magn:    0.9813    constr:    0.0000
     atom:   15    charge:    3.1966    magn:    0.9814    constr:    0.0000
     atom:   16    charge:    3.1961    magn:    0.9838    constr:    0.0000
     atom:   17    charge:    3.1961    magn:    0.9838    constr:    0.0000
     atom:   18    charge:    3.1957    magn:    0.9857    constr:    0.0000
     atom:   19    charge:    3.1964    magn:    0.9827    constr:    0.0000
     atom:   20    charge:    3.1962    magn:    0.9845    constr:    0.0000
     atom:   21    charge:    3.1962    magn:    0.9845    constr:    0.0000
     atom:   22    charge:    3.1976    magn:    0.9881    constr:    0.0000
     atom:   23    charge:    3.1976    magn:    0.9881    constr:    0.0000
     atom:   24    charge:    3.1974    magn:    0.9810    constr:    0.0000
     atom:   25    charge:    3.1951    magn:    0.9881    constr:    0.0000
     atom:   26    charge:    3.1954    magn:    0.9884    constr:    0.0000
     atom:   27    charge:    3.1954    magn:    0.9884    constr:    0.0000
     atom:   28    charge:    3.1986    magn:    0.9930    constr:    0.0000
     atom:   29    charge:    3.1986    magn:    0.9930    constr:    0.0000
     atom:   30    charge:    3.1988    magn:    0.9912    constr:    0.0000
     atom:   31    charge:    3.2031    magn:    1.0071    constr:    0.0000
     atom:   32    charge:    3.2041    magn:    1.0057    constr:    0.0000
     atom:   33    charge:    3.2041    magn:    1.0057    constr:    0.0000
     atom:   34    charge:    3.2210    magn:    1.0006    constr:    0.0000
     atom:   35    charge:    3.2210    magn:    1.0006    constr:    0.0000
     atom:   36    charge:    3.2226    magn:    0.9998    constr:    0.0000
     atom:   37    charge:    2.0494    magn:    0.3700    constr:    0.0000

     total cpu time spent up to now is     1258.3 secs

     total energy              =   -2918.82563572 Ry
     Harris-Foulkes estimate   =   -2918.79548257 Ry
     estimated scf accuracy    <       3.20013085 Ry

     total magnetization       =    67.18 Bohr mag/cell
     absolute magnetization    =    70.39 Bohr mag/cell

     iteration # 12     ecut=    44.10 Ry     beta=0.10
     Davidson diagonalization with overlap
     ethr =  2.14E-04,  avg # of iterations =  6.5

     negative rho (up, down):  1.404E-02 1.458E-02
 
     Adding external electric field

     Computed dipole along edir(3) : 
        Dipole               -0.1144 Ry au,         -0.2907 Debye
        Dipole field         -0.0001 Ry au
 
        Potential amp.        0.0167 Ry
        Total length         73.7482 bohr
 
 
     Adding external electric field

     Computed dipole along edir(3) : 
        Dipole               -0.1144 Ry au,         -0.2907 Debye
        Dipole field         -0.0001 Ry au
 
        Potential amp.        0.0167 Ry
        Total length         73.7482 bohr
 
 
     Magnetic moment per site:
     atom:    1    charge:    3.2204    magn:    1.0242    constr:    0.0000
     atom:    2    charge:    3.2159    magn:    1.0225    constr:    0.0000
     atom:    3    charge:    3.2159    magn:    1.0225    constr:    0.0000
     atom:    4    charge:    3.2015    magn:    1.0253    constr:    0.0000
     atom:    5    charge:    3.2015    magn:    1.0253    constr:    0.0000
     atom:    6    charge:    3.2041    magn:    1.0214    constr:    0.0000
     atom:    7    charge:    3.2053    magn:    1.0070    constr:    0.0000
     atom:    8    charge:    3.2018    magn:    1.0073    constr:    0.0000
     atom:    9    charge:    3.2018    magn:    1.0073    constr:    0.0000
     atom:   10    charge:    3.1987    magn:    0.9962    constr:    0.0000
     atom:   11    charge:    3.1987    magn:    0.9962    constr:    0.0000
     atom:   12    charge:    3.1994    magn:    0.9960    constr:    0.0000
     atom:   13    charge:    3.1999    magn:    0.9967    constr:    0.0000
     atom:   14    charge:    3.1990    magn:    0.9877    constr:    0.0000
     atom:   15    charge:    3.1990    magn:    0.9877    constr:    0.0000
     atom:   16    charge:    3.2000    magn:    0.9887    constr:    0.0000
     atom:   17    charge:    3.2000    magn:    0.9887    constr:    0.0000
     atom:   18    charge:    3.1997    magn:    0.9906    constr:    0.0000
     atom:   19    charge:    3.1996    magn:    0.9881    constr:    0.0000
     atom:   20    charge:    3.1991    magn:    0.9899    constr:    0.0000
     atom:   21    charge:    3.1991    magn:    0.9899    constr:    0.0000
     atom:   22    charge:    3.1998    magn:    0.9949    constr:    0.0000
     atom:   23    charge:    3.1998    magn:    0.9949    constr:    0.0000
     atom:   24    charge:    3.1986    magn:    0.9887    constr:    0.0000
     atom:   25    charge:    3.1995    magn:    0.9940    constr:    0.0000
     atom:   26    charge:    3.1986    magn:    0.9952    constr:    0.0000
     atom:   27    charge:    3.1986    magn:    0.9952    constr:    0.0000
     atom:   28    charge:    3.2010    magn:    0.9996    constr:    0.0000
     atom:   29    charge:    3.2010    magn:    0.9996    constr:    0.0000
     atom:   30    charge:    3.1997    magn:    0.9992    constr:    0.0000
     atom:   31    charge:    3.2046    magn:    1.0139    constr:    0.0000
     atom:   32    charge:    3.2031    magn:    1.0143    constr:    0.0000
     atom:   33    charge:    3.2031    magn:    1.0143    constr:    0.0000
     atom:   34    charge:    3.2156    magn:    1.0112    constr:    0.0000
     atom:   35    charge:    3.2156    magn:    1.0112    constr:    0.0000
     atom:   36    charge:    3.2137    magn:    1.0133    constr:    0.0000
     atom:   37    charge:    2.0416    magn:    0.3775    constr:    0.0000

     total cpu time spent up to now is     1376.5 secs

     total energy              =   -2918.83005681 Ry
     Harris-Foulkes estimate   =   -2918.87853585 Ry
     estimated scf accuracy    <       0.32251481 Ry

     total magnetization       =    64.68 Bohr mag/cell
     absolute magnetization    =    69.33 Bohr mag/cell

     iteration # 13     ecut=    44.10 Ry     beta=0.10
     Davidson diagonalization with overlap
     ethr =  9.77E-05,  avg # of iterations =  2.9

     negative rho (up, down):  1.554E-02 1.610E-02
 
     Adding external electric field

     Computed dipole along edir(3) : 
        Dipole               -0.1445 Ry au,         -0.3672 Debye
        Dipole field         -0.0001 Ry au
 
        Potential amp.        0.0211 Ry
        Total length         73.7482 bohr
 
 
     Adding external electric field

     Computed dipole along edir(3) : 
        Dipole               -0.1445 Ry au,         -0.3672 Debye
        Dipole field         -0.0001 Ry au
 
        Potential amp.        0.0211 Ry
        Total length         73.7482 bohr
 
 
     Magnetic moment per site:
     atom:    1    charge:    3.2216    magn:    0.9933    constr:    0.0000
     atom:    2    charge:    3.2186    magn:    0.9934    constr:    0.0000
     atom:    3    charge:    3.2186    magn:    0.9934    constr:    0.0000
     atom:    4    charge:    3.2024    magn:    0.9930    constr:    0.0000
     atom:    5    charge:    3.2024    magn:    0.9930    constr:    0.0000
     atom:    6    charge:    3.2056    magn:    0.9945    constr:    0.0000
     atom:    7    charge:    3.2044    magn:    0.9793    constr:    0.0000
     atom:    8    charge:    3.2020    magn:    0.9804    constr:    0.0000
     atom:    9    charge:    3.2020    magn:    0.9804    constr:    0.0000
     atom:   10    charge:    3.1996    magn:    0.9665    constr:    0.0000
     atom:   11    charge:    3.1996    magn:    0.9665    constr:    0.0000
     atom:   12    charge:    3.2012    magn:    0.9647    constr:    0.0000
     atom:   13    charge:    3.2007    magn:    0.9673    constr:    0.0000
     atom:   14    charge:    3.2002    magn:    0.9552    constr:    0.0000
     atom:   15    charge:    3.2002    magn:    0.9552    constr:    0.0000
     atom:   16    charge:    3.2004    magn:    0.9581    constr:    0.0000
     atom:   17    charge:    3.2004    magn:    0.9581    constr:    0.0000
     atom:   18    charge:    3.2008    magn:    0.9597    constr:    0.0000
     atom:   19    charge:    3.2001    magn:    0.9572    constr:    0.0000
     atom:   20    charge:    3.2001    magn:    0.9584    constr:    0.0000
     atom:   21    charge:    3.2001    magn:    0.9583    constr:    0.0000
     atom:   22    charge:    3.2013    magn:    0.9638    constr:    0.0000
     atom:   23    charge:    3.2013    magn:    0.9637    constr:    0.0000
     atom:   24    charge:    3.2009    magn:    0.9567    constr:    0.0000
     atom:   25    charge:    3.2007    magn:    0.9632    constr:    0.0000
     atom:   26    charge:    3.2008    magn:    0.9642    constr:    0.0000
     atom:   27    charge:    3.2008    magn:    0.9642    constr:    0.0000
     atom:   28    charge:    3.2018    magn:    0.9708    constr:    0.0000
     atom:   29    charge:    3.2018    magn:    0.9708    constr:    0.0000
     atom:   30    charge:    3.2015    magn:    0.9705    constr:    0.0000
     atom:   31    charge:    3.2067    magn:    0.9857    constr:    0.0000
     atom:   32    charge:    3.2067    magn:    0.9849    constr:    0.0000
     atom:   33    charge:    3.2067    magn:    0.9849    constr:    0.0000
     atom:   34    charge:    3.2164    magn:    0.9829    constr:    0.0000
     atom:   35    charge:    3.2164    magn:    0.9829    constr:    0.0000
     atom:   36    charge:    3.2172    magn:    0.9828    constr:    0.0000
     atom:   37    charge:    2.0291    magn:    0.2921    constr:    0.0000

     total cpu time spent up to now is     1477.4 secs

     total energy              =   -2918.86946328 Ry
     Harris-Foulkes estimate   =   -2918.86206143 Ry
     estimated scf accuracy    <       0.39839775 Ry

     total magnetization       =    64.52 Bohr mag/cell
     absolute magnetization    =    69.11 Bohr mag/cell

     iteration # 14     ecut=    44.10 Ry     beta=0.10
     Davidson diagonalization with overlap
     ethr =  9.77E-05,  avg # of iterations =  1.0

     negative rho (up, down):  1.463E-02 1.569E-02
 
     Adding external electric field

     Computed dipole along edir(3) : 
        Dipole               -0.1500 Ry au,         -0.3812 Debye
        Dipole field         -0.0001 Ry au
 
        Potential amp.        0.0219 Ry
        Total length         73.7482 bohr
 
 
     Adding external electric field

     Computed dipole along edir(3) : 
        Dipole               -0.1500 Ry au,         -0.3812 Debye
        Dipole field         -0.0001 Ry au
 
        Potential amp.        0.0219 Ry
        Total length         73.7482 bohr
 
 
     Magnetic moment per site:
     atom:    1    charge:    3.2212    magn:    0.9900    constr:    0.0000
     atom:    2    charge:    3.2187    magn:    0.9907    constr:    0.0000
     atom:    3    charge:    3.2187    magn:    0.9907    constr:    0.0000
     atom:    4    charge:    3.2017    magn:    0.9885    constr:    0.0000
     atom:    5    charge:    3.2017    magn:    0.9885    constr:    0.0000
     atom:    6    charge:    3.2063    magn:    0.9908    constr:    0.0000
     atom:    7    charge:    3.2063    magn:    0.9741    constr:    0.0000
     atom:    8    charge:    3.2018    magn:    0.9772    constr:    0.0000
     atom:    9    charge:    3.2018    magn:    0.9772    constr:    0.0000
     atom:   10    charge:    3.1998    magn:    0.9623    constr:    0.0000
     atom:   11    charge:    3.1998    magn:    0.9623    constr:    0.0000
     atom:   12    charge:    3.2005    magn:    0.9606    constr:    0.0000
     atom:   13    charge:    3.2007    magn:    0.9633    constr:    0.0000
     atom:   14    charge:    3.2006    magn:    0.9502    constr:    0.0000
     atom:   15    charge:    3.2006    magn:    0.9502    constr:    0.0000
     atom:   16    charge:    3.2003    magn:    0.9538    constr:    0.0000
     atom:   17    charge:    3.2003    magn:    0.9538    constr:    0.0000
     atom:   18    charge:    3.1998    magn:    0.9560    constr:    0.0000
     atom:   19    charge:    3.2002    magn:    0.9528    constr:    0.0000
     atom:   20    charge:    3.1997    magn:    0.9542    constr:    0.0000
     atom:   21    charge:    3.1997    magn:    0.9542    constr:    0.0000
     atom:   22    charge:    3.2016    magn:    0.9593    constr:    0.0000
     atom:   23    charge:    3.2016    magn:    0.9592    constr:    0.0000
     atom:   24    charge:    3.2009    magn:    0.9524    constr:    0.0000
     atom:   25    charge:    3.2009    magn:    0.9588    constr:    0.0000
     atom:   26    charge:    3.2007    magn:    0.9599    constr:    0.0000
     atom:   27    charge:    3.2007    magn:    0.9599    constr:    0.0000
     atom:   28    charge:    3.2020    magn:    0.9668    constr:    0.0000
     atom:   29    charge:    3.2020    magn:    0.9668    constr:    0.0000
     atom:   30    charge:    3.2018    magn:    0.9667    constr:    0.0000
     atom:   31    charge:    3.2064    magn:    0.9824    constr:    0.0000
     atom:   32    charge:    3.2063    magn:    0.9817    constr:    0.0000
     atom:   33    charge:    3.2063    magn:    0.9817    constr:    0.0000
     atom:   34    charge:    3.2173    magn:    0.9791    constr:    0.0000
     atom:   35    charge:    3.2173    magn:    0.9791    constr:    0.0000
     atom:   36    charge:    3.2175    magn:    0.9794    constr:    0.0000
     atom:   37    charge:    2.0292    magn:    0.2776    constr:    0.0000

     total cpu time spent up to now is     1570.6 secs

     total energy              =   -2918.88459604 Ry
     Harris-Foulkes estimate   =   -2918.88324775 Ry
     estimated scf accuracy    <       0.02568398 Ry

     total magnetization       =    63.59 Bohr mag/cell
     absolute magnetization    =    68.91 Bohr mag/cell

     iteration # 15     ecut=    44.10 Ry     beta=0.10
     Davidson diagonalization with overlap
     ethr =  7.78E-06,  avg # of iterations =  9.8

     negative rho (up, down):  1.371E-02 1.539E-02
 
     Adding external electric field

     Computed dipole along edir(3) : 
        Dipole               -0.1581 Ry au,         -0.4017 Debye
        Dipole field         -0.0002 Ry au
 
        Potential amp.        0.0231 Ry
        Total length         73.7482 bohr
 
 
     Adding external electric field

     Computed dipole along edir(3) : 
        Dipole               -0.1581 Ry au,         -0.4017 Debye
        Dipole field         -0.0002 Ry au
 
        Potential amp.        0.0231 Ry
        Total length         73.7482 bohr
 
 
     Magnetic moment per site:
     atom:    1    charge:    3.2213    magn:    0.9872    constr:    0.0000
     atom:    2    charge:    3.2189    magn:    0.9894    constr:    0.0000
     atom:    3    charge:    3.2189    magn:    0.9894    constr:    0.0000
     atom:    4    charge:    3.2019    magn:    0.9834    constr:    0.0000
     atom:    5    charge:    3.2019    magn:    0.9834    constr:    0.0000
     atom:    6    charge:    3.2070    magn:    0.9881    constr:    0.0000
     atom:    7    charge:    3.2061    magn:    0.9711    constr:    0.0000
     atom:    8    charge:    3.2026    magn:    0.9741    constr:    0.0000
     atom:    9    charge:    3.2026    magn:    0.9741    constr:    0.0000
     atom:   10    charge:    3.1996    magn:    0.9589    constr:    0.0000
     atom:   11    charge:    3.1996    magn:    0.9589    constr:    0.0000
     atom:   12    charge:    3.2005    magn:    0.9564    constr:    0.0000
     atom:   13    charge:    3.2000    magn:    0.9606    constr:    0.0000
     atom:   14    charge:    3.2000    magn:    0.9461    constr:    0.0000
     atom:   15    charge:    3.2000    magn:    0.9461    constr:    0.0000
     atom:   16    charge:    3.1997    magn:    0.9503    constr:    0.0000
     atom:   17    charge:    3.1997    magn:    0.9503    constr:    0.0000
     atom:   18    charge:    3.1995    magn:    0.9524    constr:    0.0000
     atom:   19    charge:    3.1995    magn:    0.9496    constr:    0.0000
     atom:   20    charge:    3.1992    magn:    0.9505    constr:    0.0000
     atom:   21    charge:    3.1992    magn:    0.9505    constr:    0.0000
     atom:   22    charge:    3.2009    magn:    0.9559    constr:    0.0000
     atom:   23    charge:    3.2009    magn:    0.9559    constr:    0.0000
     atom:   24    charge:    3.2004    magn:    0.9490    constr:    0.0000
     atom:   25    charge:    3.2005    magn:    0.9551    constr:    0.0000
     atom:   26    charge:    3.2005    magn:    0.9562    constr:    0.0000
     atom:   27    charge:    3.2005    magn:    0.9562    constr:    0.0000
     atom:   28    charge:    3.2024    magn:    0.9634    constr:    0.0000
     atom:   29    charge:    3.2024    magn:    0.9634    constr:    0.0000
     atom:   30    charge:    3.2023    magn:    0.9634    constr:    0.0000
     atom:   31    charge:    3.2072    magn:    0.9790    constr:    0.0000
     atom:   32    charge:    3.2071    magn:    0.9784    constr:    0.0000
     atom:   33    charge:    3.2071    magn:    0.9784    constr:    0.0000
     atom:   34    charge:    3.2175    magn:    0.9771    constr:    0.0000
     atom:   35    charge:    3.2175    magn:    0.9771    constr:    0.0000
     atom:   36    charge:    3.2177    magn:    0.9773    constr:    0.0000
     atom:   37    charge:    2.0298    magn:    0.2623    constr:    0.0000

     total cpu time spent up to now is     1710.0 secs

     total energy              =   -2918.88731994 Ry
     Harris-Foulkes estimate   =   -2918.88583737 Ry
     estimated scf accuracy    <       0.01350212 Ry

     total magnetization       =    63.45 Bohr mag/cell
     absolute magnetization    =    68.91 Bohr mag/cell

     iteration # 16     ecut=    44.10 Ry     beta=0.10
     Davidson diagonalization with overlap
     ethr =  4.09E-06,  avg # of iterations =  1.0

     negative rho (up, down):  1.265E-02 1.503E-02
 
     Adding external electric field

     Computed dipole along edir(3) : 
        Dipole               -0.1714 Ry au,         -0.4356 Debye
        Dipole field         -0.0002 Ry au
 
        Potential amp.        0.0250 Ry
        Total length         73.7482 bohr
 
 
     Adding external electric field

     Computed dipole along edir(3) : 
        Dipole               -0.1714 Ry au,         -0.4356 Debye
        Dipole field         -0.0002 Ry au
 
        Potential amp.        0.0250 Ry
        Total length         73.7482 bohr
 
 
     Magnetic moment per site:
     atom:    1    charge:    3.2215    magn:    0.9871    constr:    0.0000
     atom:    2    charge:    3.2194    magn:    0.9902    constr:    0.0000
     atom:    3    charge:    3.2194    magn:    0.9902    constr:    0.0000
     atom:    4    charge:    3.2019    magn:    0.9820    constr:    0.0000
     atom:    5    charge:    3.2019    magn:    0.9820    constr:    0.0000
     atom:    6    charge:    3.2070    magn:    0.9886    constr:    0.0000
     atom:    7    charge:    3.2058    magn:    0.9713    constr:    0.0000
     atom:    8    charge:    3.2026    magn:    0.9745    constr:    0.0000
     atom:    9    charge:    3.2026    magn:    0.9745    constr:    0.0000
     atom:   10    charge:    3.1998    magn:    0.9586    constr:    0.0000
     atom:   11    charge:    3.1998    magn:    0.9585    constr:    0.0000
     atom:   12    charge:    3.2007    magn:    0.9557    constr:    0.0000
     atom:   13    charge:    3.2003    magn:    0.9603    constr:    0.0000
     atom:   14    charge:    3.2001    magn:    0.9452    constr:    0.0000
     atom:   15    charge:    3.2001    magn:    0.9452    constr:    0.0000
     atom:   16    charge:    3.2000    magn:    0.9496    constr:    0.0000
     atom:   17    charge:    3.2000    magn:    0.9496    constr:    0.0000
     atom:   18    charge:    3.1999    magn:    0.9517    constr:    0.0000
     atom:   19    charge:    3.1998    magn:    0.9490    constr:    0.0000
     atom:   20    charge:    3.1995    magn:    0.9498    constr:    0.0000
     atom:   21    charge:    3.1995    magn:    0.9498    constr:    0.0000
     atom:   22    charge:    3.2010    magn:    0.9554    constr:    0.0000
     atom:   23    charge:    3.2010    magn:    0.9554    constr:    0.0000
     atom:   24    charge:    3.2005    magn:    0.9486    constr:    0.0000
     atom:   25    charge:    3.2006    magn:    0.9546    constr:    0.0000
     atom:   26    charge:    3.2005    magn:    0.9558    constr:    0.0000
     atom:   27    charge:    3.2005    magn:    0.9558    constr:    0.0000
     atom:   28    charge:    3.2023    magn:    0.9636    constr:    0.0000
     atom:   29    charge:    3.2023    magn:    0.9636    constr:    0.0000
     atom:   30    charge:    3.2021    magn:    0.9638    constr:    0.0000
     atom:   31    charge:    3.2073    magn:    0.9792    constr:    0.0000
     atom:   32    charge:    3.2072    magn:    0.9786    constr:    0.0000
     atom:   33    charge:    3.2072    magn:    0.9786    constr:    0.0000
     atom:   34    charge:    3.2178    magn:    0.9775    constr:    0.0000
     atom:   35    charge:    3.2178    magn:    0.9775    constr:    0.0000
     atom:   36    charge:    3.2181    magn:    0.9776    constr:    0.0000
     atom:   37    charge:    2.0291    magn:    0.2567    constr:    0.0000

     total cpu time spent up to now is     1803.2 secs

     total energy              =   -2918.88824458 Ry
     Harris-Foulkes estimate   =   -2918.88807208 Ry
     estimated scf accuracy    <       0.01781011 Ry

     total magnetization       =    63.30 Bohr mag/cell
     absolute magnetization    =    68.89 Bohr mag/cell

     iteration # 17     ecut=    44.10 Ry     beta=0.10
     Davidson diagonalization with overlap
     ethr =  4.09E-06,  avg # of iterations =  1.0

     negative rho (up, down):  1.182E-02 1.479E-02
 
     Adding external electric field

     Computed dipole along edir(3) : 
        Dipole               -0.1468 Ry au,         -0.3732 Debye
        Dipole field         -0.0001 Ry au
 
        Potential amp.        0.0215 Ry
        Total length         73.7482 bohr
 
 
     Adding external electric field

     Computed dipole along edir(3) : 
        Dipole               -0.1468 Ry au,         -0.3732 Debye
        Dipole field         -0.0001 Ry au
 
        Potential amp.        0.0215 Ry
        Total length         73.7482 bohr
 
 
     Magnetic moment per site:
     atom:    1    charge:    3.2215    magn:    0.9871    constr:    0.0000
     atom:    2    charge:    3.2193    magn:    0.9905    constr:    0.0000
     atom:    3    charge:    3.2193    magn:    0.9905    constr:    0.0000
     atom:    4    charge:    3.2018    magn:    0.9816    constr:    0.0000
     atom:    5    charge:    3.2018    magn:    0.9815    constr:    0.0000
     atom:    6    charge:    3.2070    magn:    0.9887    constr:    0.0000
     atom:    7    charge:    3.2058    magn:    0.9713    constr:    0.0000
     atom:    8    charge:    3.2026    magn:    0.9745    constr:    0.0000
     atom:    9    charge:    3.2026    magn:    0.9745    constr:    0.0000
     atom:   10    charge:    3.1997    magn:    0.9584    constr:    0.0000
     atom:   11    charge:    3.1997    magn:    0.9584    constr:    0.0000
     atom:   12    charge:    3.2007    magn:    0.9555    constr:    0.0000
     atom:   13    charge:    3.2003    magn:    0.9602    constr:    0.0000
     atom:   14    charge:    3.2000    magn:    0.9450    constr:    0.0000
     atom:   15    charge:    3.2000    magn:    0.9450    constr:    0.0000
     atom:   16    charge:    3.2000    magn:    0.9495    constr:    0.0000
     atom:   17    charge:    3.2000    magn:    0.9495    constr:    0.0000
     atom:   18    charge:    3.1999    magn:    0.9516    constr:    0.0000
     atom:   19    charge:    3.1998    magn:    0.9489    constr:    0.0000
     atom:   20    charge:    3.1994    magn:    0.9497    constr:    0.0000
     atom:   21    charge:    3.1994    magn:    0.9497    constr:    0.0000
     atom:   22    charge:    3.2010    magn:    0.9552    constr:    0.0000
     atom:   23    charge:    3.2010    magn:    0.9552    constr:    0.0000
     atom:   24    charge:    3.2005    magn:    0.9485    constr:    0.0000
     atom:   25    charge:    3.2006    magn:    0.9544    constr:    0.0000
     atom:   26    charge:    3.2006    magn:    0.9555    constr:    0.0000
     atom:   27    charge:    3.2006    magn:    0.9555    constr:    0.0000
     atom:   28    charge:    3.2024    magn:    0.9634    constr:    0.0000
     atom:   29    charge:    3.2024    magn:    0.9634    constr:    0.0000
     atom:   30    charge:    3.2022    magn:    0.9637    constr:    0.0000
     atom:   31    charge:    3.2074    magn:    0.9791    constr:    0.0000
     atom:   32    charge:    3.2073    magn:    0.9785    constr:    0.0000
     atom:   33    charge:    3.2073    magn:    0.9785    constr:    0.0000
     atom:   34    charge:    3.2179    magn:    0.9777    constr:    0.0000
     atom:   35    charge:    3.2179    magn:    0.9777    constr:    0.0000
     atom:   36    charge:    3.2182    magn:    0.9777    constr:    0.0000
     atom:   37    charge:    2.0291    magn:    0.2548    constr:    0.0000

     total cpu time spent up to now is     1896.5 secs

     total energy              =   -2918.88874809 Ry
     Harris-Foulkes estimate   =   -2918.88885801 Ry
     estimated scf accuracy    <       0.03220868 Ry

     total magnetization       =    63.28 Bohr mag/cell
     absolute magnetization    =    68.91 Bohr mag/cell

     iteration # 18     ecut=    44.10 Ry     beta=0.10
     Davidson diagonalization with overlap
     ethr =  4.09E-06,  avg # of iterations =  1.0

     negative rho (up, down):  1.077E-02 1.476E-02
 
     Adding external electric field

     Computed dipole along edir(3) : 
        Dipole               -0.1607 Ry au,         -0.4085 Debye
        Dipole field         -0.0002 Ry au
 
        Potential amp.        0.0235 Ry
        Total length         73.7482 bohr
 
 
     Adding external electric field

     Computed dipole along edir(3) : 
        Dipole               -0.1607 Ry au,         -0.4085 Debye
        Dipole field         -0.0002 Ry au
 
        Potential amp.        0.0235 Ry
        Total length         73.7482 bohr
 
 
     Magnetic moment per site:
     atom:    1    charge:    3.2218    magn:    0.9864    constr:    0.0000
     atom:    2    charge:    3.2209    magn:    0.9928    constr:    0.0000
     atom:    3    charge:    3.2209    magn:    0.9928    constr:    0.0000
     atom:    4    charge:    3.2023    magn:    0.9741    constr:    0.0000
     atom:    5    charge:    3.2023    magn:    0.9741    constr:    0.0000
     atom:    6    charge:    3.2084    magn:    0.9883    constr:    0.0000
     atom:    7    charge:    3.2064    magn:    0.9694    constr:    0.0000
     atom:    8    charge:    3.2034    magn:    0.9740    constr:    0.0000
     atom:    9    charge:    3.2034    magn:    0.9740    constr:    0.0000
     atom:   10    charge:    3.1993    magn:    0.9563    constr:    0.0000
     atom:   11    charge:    3.1993    magn:    0.9563    constr:    0.0000
     atom:   12    charge:    3.2000    magn:    0.9517    constr:    0.0000
     atom:   13    charge:    3.2000    magn:    0.9588    constr:    0.0000
     atom:   14    charge:    3.1995    magn:    0.9407    constr:    0.0000
     atom:   15    charge:    3.1995    magn:    0.9407    constr:    0.0000
     atom:   16    charge:    3.1995    magn:    0.9467    constr:    0.0000
     atom:   17    charge:    3.1995    magn:    0.9467    constr:    0.0000
[...]
    -2.3810  -2.3338  -2.3252  -2.3060  -2.2848  -2.2682  -2.2591  -2.2457
    -2.2226  -2.2031  -2.2011  -2.1907  -2.1787  -2.1675  -2.1514  -2.1276
    -2.1074  -2.0846  -2.0568  -2.0438  -2.0334  -2.0155  -1.9926  -1.9646
    -1.9518  -1.9329  -1.9131  -1.9016  -1.8695  -1.8551  -1.8416  -1.8245
    -1.7971  -1.7749  -1.7567  -1.7420  -1.7022  -1.6832  -1.6498  -1.6265
    -1.6100  -1.6004  -1.5797  -1.5696  -1.5632  -1.5528  -1.5267  -1.4903
    -1.4695  -1.4566  -1.4443  -1.4111  -1.3856  -1.3537  -1.3362  -1.2971
    -1.2209  -0.9960  -0.8638  -0.7948  -0.5615  -0.3830  -0.2373   0.0162
     0.2057   0.3200   0.4522   0.4741   0.6602   0.9542   1.2718   1.4573
     1.6869   1.7579   1.8766   1.9870   2.1799   2.4290   2.7041   2.9287
     2.9762   3.1524   3.4403   3.7551   3.9042   4.0240   4.1594   4.2135
     4.2910   4.4043   4.5323   4.5751   4.7468   4.7870   4.8608   4.9958
     5.0445   5.0921   5.2065   5.3122   5.4003   5.4450   5.4791   5.5561
     5.6289   5.7243   5.7658   5.8243   5.8588   6.0599   6.0823   6.0948
     6.1602   6.2044   6.3123   6.3336   6.4437   6.5106   6.5302   6.5498
     6.5807   6.6211   6.7688   6.8458   6.9102   6.9252   6.9981   7.0272
     7.0545

 ------ SPIN DOWN ----------


          k = 0.0000 0.0000 0.0000 ( 62705 PWs)   bands (ev):

   -19.1749  -9.0927  -7.8627  -6.5804  -6.5550  -6.2274  -5.8198  -5.7512
    -5.6671  -5.5961  -5.3611  -5.2279  -5.2047  -4.7088  -4.6837  -4.5840
    -4.3621  -4.3353  -4.3219  -4.2914  -4.2612  -4.2289  -4.2151  -3.9744
    -3.9423  -3.9258  -3.8935  -3.8137  -3.8012  -3.6303  -3.5932  -3.5798
    -3.5474  -3.5201  -3.5152  -3.4675  -3.4603  -3.4069  -3.3963  -3.2712
    -3.2476  -3.2144  -3.2003  -3.1741  -3.0297  -3.0224  -2.9983  -2.9815
    -2.9135  -2.8920  -2.7280  -2.6887  -2.6697  -2.6573  -2.6223  -2.6126
    -2.5625  -2.5462  -2.5207  -2.4859  -2.4675  -2.4528  -2.4438  -2.4065
    -2.3152  -2.2938  -2.2774  -2.2771  -2.2690  -2.2548  -2.2114  -2.1739
    -2.1517  -2.1064  -2.0716  -2.0483  -2.0196  -2.0095  -1.9749  -1.9567
    -1.9262  -1.9202  -1.8566  -1.8536  -1.8303  -1.7903  -1.7646  -1.7276
    -1.6654  -1.6454  -1.6218  -1.6023  -1.5788  -1.5643  -1.5584  -1.5504
    -1.5142  -1.5062  -1.5033  -1.4564  -1.4539  -1.4459  -1.4350  -1.4227
    -1.3971  -1.3554  -1.3327  -1.3138  -1.2908  -1.2827  -1.2242  -1.2216
    -1.1791  -1.1655  -1.1369  -1.1078  -1.0479  -1.0468  -0.9656  -0.9643
    -0.9463  -0.9198  -0.8872  -0.8838  -0.8309  -0.8009  -0.7714  -0.7681
    -0.7435  -0.6995  -0.6517  -0.6164  -0.6066  -0.6025  -0.5644  -0.5618
    -0.5351  -0.5126  -0.4928  -0.3862  -0.3818  -0.3769  -0.3353  -0.3207
    -0.3138  -0.2862  -0.2854  -0.2679  -0.2653  -0.2411  -0.1877  -0.1821
    -0.1741  -0.1606  -0.1497  -0.1383  -0.1195  -0.1138  -0.0549  -0.0488
    -0.0327  -0.0295  -0.0247  -0.0110  -0.0008   0.0235   0.0339   0.0452
     0.0908   0.0960   0.1261   0.1756   0.1869   0.1980   0.2215   0.2320
     0.2469   0.2776   0.2834   0.2907   0.3016   0.3021   0.3266   0.3414
     0.3424   0.3726   0.3837   0.4131   0.4199   0.4598   0.4813   0.5482
     0.5877   0.5928   0.6656   0.7345   0.9785   0.9809   1.0562   1.4027
     1.4826   1.5348   1.6134   1.6583   1.7048   2.0254   2.0274   2.1555
     2.1709   2.2589   2.3262   2.4037   2.6143   3.0123   3.1330   3.2625
     3.3223   3.4013   3.4188   3.4734   3.5569   3.6482   3.7919   3.9309
     4.1546   4.2335   4.5814   4.5982   4.9589   5.0675   5.1100   5.1510
     5.2693   5.4202   5.5615   5.7347   5.7636   5.8141   5.9335   6.0341
     6.0595   6.0833   6.0888   6.1815   6.2818   6.5445   6.5575   6.5736
     6.5920   6.6255   6.6762   6.8441   6.8863   7.0640   7.0661   7.1335
     7.2134   7.2571   7.2632   7.2796   7.3848   7.4279   7.4378   7.4634
     7.4925

          k = 0.0000 0.0440 0.0000 ( 62728 PWs)   bands (ev):

   -19.1748  -8.7842  -7.8954  -7.5745  -6.7731  -6.0021  -5.6074  -5.5734
    -5.4282  -5.3324  -5.2058  -5.0198  -4.9667  -4.7803  -4.7293  -4.5038
    -4.4853  -4.4572  -4.3434  -4.2746  -4.2634  -4.1332  -4.1087  -4.0390
    -3.9722  -3.9059  -3.8760  -3.8007  -3.7816  -3.7257  -3.7049  -3.6464
    -3.6285  -3.6198  -3.6075  -3.5522  -3.4891  -3.4407  -3.4365  -3.3139
    -3.2914  -3.2751  -3.1810  -3.1436  -3.1279  -3.0318  -3.0170  -2.9238
    -2.8950  -2.8613  -2.7271  -2.7138  -2.6871  -2.6770  -2.6083  -2.5986
    -2.5929  -2.5829  -2.5255  -2.5068  -2.4817  -2.4389  -2.4112  -2.3856
    -2.3685  -2.3521  -2.2930  -2.2570  -2.2446  -2.2121  -2.1770  -2.1554
    -2.1531  -2.0782  -2.0590  -2.0415  -2.0206  -1.9848  -1.9712  -1.9404
    -1.9206  -1.9023  -1.8806  -1.8774  -1.8621  -1.8415  -1.7909  -1.7678
    -1.7459  -1.7110  -1.6883  -1.6769  -1.6479  -1.6204  -1.5981  -1.5806
    -1.5431  -1.5235  -1.5044  -1.4619  -1.4507  -1.4378  -1.4069  -1.3910
    -1.3809  -1.3396  -1.3272  -1.3115  -1.2779  -1.2397  -1.2072  -1.1855
    -1.1323  -1.1238  -1.0964  -1.0684  -1.0551  -1.0412  -1.0299  -0.9897
    -0.9804  -0.9642  -0.9315  -0.9128  -0.8887  -0.8620  -0.8257  -0.8055
    -0.8015  -0.7679  -0.7288  -0.6954  -0.6745  -0.6381  -0.6163  -0.5664
    -0.5544  -0.5528  -0.4986  -0.4699  -0.4609  -0.4265  -0.4197  -0.3927
    -0.3785  -0.3377  -0.3143  -0.3093  -0.2966  -0.2786  -0.2605  -0.2303
    -0.2024  -0.1901  -0.1682  -0.1646  -0.1443  -0.1084  -0.0483  -0.0367
    -0.0086   0.0026   0.0159   0.0402   0.0695   0.0915   0.1111   0.1552
     0.1850   0.1980   0.2100   0.2368   0.2562   0.2743   0.2757   0.2947
     0.3058   0.3167   0.3298   0.3573   0.3637   0.3753   0.3951   0.3971
     0.4148   0.4344   0.4595   0.4843   0.4967   0.5248   0.6135   0.6678
     0.7344   0.9258   0.9908   1.0155   1.0527   1.1240   1.1815   1.3561
     1.4998   1.5945   1.6223   1.7464   1.9278   1.9774   2.2684   2.3736
     2.4304   2.4874   2.5811   2.6565   2.7321   2.7603   2.8691   2.9845
     3.0219   3.2125   3.4029   3.5045   3.6727   3.7192   3.7598   3.8583
     3.9828   4.1168   4.1676   4.2272   4.3163   4.4577   4.5522   4.6201
     4.8495   4.9135   5.0815   5.2423   5.2843   5.3795   5.4817   5.7563
     5.8516   5.9331   6.1183   6.3711   6.4998   6.5654   6.6579   6.6975
     6.8531   6.9925   7.1404   7.1939   7.2137   7.3076   7.3567   7.4214
     7.4935   7.5170   7.5718   7.6186   7.6878   7.7253   7.7627   7.7816
     7.8108

          k = 0.0538 0.0000 0.0000 ( 62649 PWs)   bands (ev):

   -19.1743  -8.6324  -7.5044  -7.2708  -6.3539  -6.2614  -6.2311  -5.8807
    -5.7132  -5.5975  -5.4031  -5.3147  -5.2554  -5.0922  -5.0595  -4.8886
    -4.6801  -4.6372  -4.5788  -4.4697  -4.1964  -4.1259  -4.1020  -3.8871
    -3.8704  -3.7943  -3.7372  -3.7259  -3.6797  -3.4876  -3.4223  -3.3959
    -3.3788  -3.3740  -3.3358  -3.3334  -3.3132  -3.3010  -3.2936  -3.2286
    -3.2128  -3.1754  -3.1704  -3.1028  -3.0889  -3.0591  -3.0299  -2.9387
    -2.9220  -2.8738  -2.8676  -2.7963  -2.7889  -2.7556  -2.6701  -2.6662
    -2.5889  -2.5553  -2.5350  -2.4882  -2.4509  -2.4323  -2.4307  -2.4190
    -2.3900  -2.3292  -2.3286  -2.2688  -2.2526  -2.2018  -2.1564  -2.0902
    -2.0886  -2.0431  -2.0186  -2.0076  -1.9666  -1.9430  -1.9338  -1.8805
    -1.8481  -1.8132  -1.7819  -1.7441  -1.7297  -1.7195  -1.6909  -1.6764
    -1.6742  -1.6317  -1.6100  -1.5982  -1.5751  -1.5554  -1.5504  -1.5380
    -1.5140  -1.4917  -1.4788  -1.4703  -1.4437  -1.4383  -1.4262  -1.3970
    -1.3924  -1.3772  -1.3577  -1.3405  -1.3272  -1.2872  -1.2578  -1.2033
    -1.1866  -1.1580  -1.1266  -1.1205  -1.0779  -1.0397  -1.0178  -0.9637
    -0.9581  -0.8964  -0.8912  -0.8665  -0.8566  -0.7954  -0.7780  -0.7269
    -0.7104  -0.6448  -0.6314  -0.6102  -0.5473  -0.5310  -0.4890  -0.4850
    -0.4724  -0.4604  -0.4412  -0.4262  -0.4171  -0.4055  -0.3694  -0.3470
    -0.3290  -0.2917  -0.2916  -0.2729  -0.2491  -0.2208  -0.2200  -0.1939
    -0.1878  -0.1725  -0.1344  -0.1310  -0.1057  -0.0871  -0.0587  -0.0450
    -0.0430  -0.0240  -0.0027   0.0161   0.0340   0.0490   0.0698   0.0717
     0.0864   0.1313   0.1424   0.1436   0.1742   0.1811   0.1994   0.2035
     0.2226   0.2278   0.2816   0.2878   0.2945   0.3231   0.3269   0.3505
     0.3586   0.3756   0.3816   0.3902   0.4121   0.4168   0.4352   0.4771
     0.4780   0.5002   0.5110   0.5431   0.5760   0.6507   0.6977   0.7076
     0.8103   0.9636   1.0229   1.2008   1.4282   1.6631   2.1104   2.2187
     2.3457   2.5476   3.1053   3.2450   3.5121   3.6569   3.7933   3.8648
     3.9263   3.9909   4.0799   4.1258   4.2140   4.3183   4.4599   4.6678
     4.6916   4.7908   4.9157   4.9259   5.0714   5.1339   5.2113   5.2796
     5.4100   5.4316   5.4948   5.6081   5.7586   5.8305   5.8998   5.9488
     5.9965   6.1451   6.1998   6.2027   6.2594   6.4343   6.4434   6.4947
     6.5105   6.5430   6.6540   6.6730   6.7159   6.7918   6.9048   6.9541
     6.9780   6.9938   7.0153   7.1499   7.2028   7.2206   7.2592   7.3393
     7.4361

          k = 0.0538 0.0440 0.0000 ( 62686 PWs)   bands (ev):

   -19.1742  -8.3326  -7.4783  -7.2280  -6.9992  -6.4784  -6.2664  -6.1227
    -5.7227  -5.6068  -5.4529  -5.1876  -5.1498  -4.9022  -4.7022  -4.6606
    -4.5315  -4.4686  -4.3883  -4.3470  -4.2903  -4.1823  -4.0286  -4.0064
    -3.9288  -3.8576  -3.8219  -3.7736  -3.6631  -3.6259  -3.5961  -3.5858
    -3.5386  -3.5216  -3.4424  -3.4104  -3.3959  -3.3586  -3.2433  -3.1736
    -3.1291  -3.1054  -3.0924  -3.0643  -3.0544  -2.9969  -2.9846  -2.9328
    -2.8906  -2.8634  -2.8293  -2.8003  -2.7607  -2.7200  -2.6948  -2.6557
    -2.6269  -2.6067  -2.5134  -2.4901  -2.4740  -2.4571  -2.4067  -2.3869
    -2.3212  -2.2819  -2.2681  -2.2428  -2.2238  -2.2110  -2.1643  -2.1547
    -2.0982  -2.0788  -2.0351  -2.0110  -1.9967  -1.9822  -1.9495  -1.9226
    -1.8888  -1.8736  -1.8359  -1.8079  -1.7852  -1.7729  -1.7484  -1.7319
    -1.7003  -1.6918  -1.6750  -1.6454  -1.5967  -1.5631  -1.5343  -1.5239
    -1.5043  -1.4808  -1.4641  -1.4357  -1.4201  -1.4031  -1.3883  -1.3563
    -1.3395  -1.3305  -1.3193  -1.2909  -1.2690  -1.2429  -1.2129  -1.2074
    -1.1807  -1.1631  -1.1366  -1.1138  -1.0734  -1.0571  -1.0259  -0.9758
    -0.9565  -0.9482  -0.9338  -0.9064  -0.8889  -0.8407  -0.8368  -0.8011
    -0.7740  -0.7588  -0.7221  -0.6981  -0.6661  -0.6427  -0.5820  -0.5603
    -0.5429  -0.5060  -0.4711  -0.4376  -0.4213  -0.4108  -0.3930  -0.3774
    -0.3567  -0.3390  -0.3141  -0.3033  -0.2692  -0.2596  -0.2416  -0.2141
    -0.1910  -0.1718  -0.1401  -0.1365  -0.1115  -0.0936  -0.0705  -0.0540
    -0.0393  -0.0203   0.0039   0.0297   0.0509   0.0765   0.0961   0.1087
     0.1320   0.1488   0.1843   0.2055   0.2236   0.2329   0.2795   0.3155
     0.3217   0.3403   0.3494   0.3576   0.3623   0.3804   0.3862   0.4095
     0.4270   0.4454   0.4493   0.4626   0.4735   0.4911   0.5113   0.5247
     0.5356   0.6116   0.6313   0.7132   0.8189   0.9461   1.0655   1.1919
     1.2474   1.3381   1.4093   1.5053   1.5549   1.7228   2.1076   2.2217
     2.4830   2.6263   2.7247   2.7771   2.9090   3.1170   3.3541   3.4814
     3.6227   3.6989   3.8401   4.0052   4.1478   4.1858   4.3139   4.5281
     4.5616   4.6133   4.7282   4.7910   4.9763   5.0108   5.0359   5.0739
     5.1303   5.2036   5.3827   5.4376   5.4551   5.5351   5.5654   5.6120
     5.7323   5.8138   5.8585   5.9969   6.0951   6.1674   6.2432   6.3220
     6.3542   6.4406   6.5094   6.5454   6.5777   6.6909   6.7785   6.8484
     6.8866   6.9585   7.0036   7.0987   7.1222   7.1744   7.2191   7.3312
     7.4219

          k = 0.0538-0.0440 0.0000 ( 62686 PWs)   bands (ev):

   -19.1742  -8.3326  -7.4783  -7.2280  -6.9992  -6.4784  -6.2665  -6.1226
    -5.7227  -5.6069  -5.4527  -5.1877  -5.1498  -4.9023  -4.7023  -4.6606
    -4.5315  -4.4686  -4.3882  -4.3470  -4.2903  -4.1824  -4.0286  -4.0064
    -3.9288  -3.8576  -3.8219  -3.7737  -3.6631  -3.6258  -3.5961  -3.5858
    -3.5385  -3.5216  -3.4424  -3.4103  -3.3960  -3.3586  -3.2433  -3.1736
    -3.1291  -3.1054  -3.0924  -3.0644  -3.0543  -2.9969  -2.9846  -2.9328
    -2.8906  -2.8634  -2.8293  -2.8002  -2.7606  -2.7202  -2.6948  -2.6556
    -2.6270  -2.6067  -2.5133  -2.4902  -2.4738  -2.4571  -2.4068  -2.3868
    -2.3212  -2.2819  -2.2681  -2.2427  -2.2238  -2.2110  -2.1644  -2.1546
    -2.0982  -2.0788  -2.0350  -2.0111  -1.9965  -1.9822  -1.9494  -1.9226
    -1.8888  -1.8736  -1.8360  -1.8078  -1.7852  -1.7730  -1.7484  -1.7318
    -1.7004  -1.6918  -1.6749  -1.6455  -1.5966  -1.5631  -1.5343  -1.5240
    -1.5044  -1.4808  -1.4641  -1.4357  -1.4200  -1.4031  -1.3883  -1.3564
    -1.3395  -1.3305  -1.3193  -1.2910  -1.2689  -1.2430  -1.2128  -1.2075
    -1.1807  -1.1631  -1.1366  -1.1136  -1.0734  -1.0571  -1.0260  -0.9759
    -0.9565  -0.9483  -0.9337  -0.9065  -0.8889  -0.8407  -0.8368  -0.8012
    -0.7740  -0.7587  -0.7221  -0.6982  -0.6662  -0.6427  -0.5819  -0.5603
    -0.5429  -0.5061  -0.4711  -0.4376  -0.4214  -0.4108  -0.3930  -0.3774
    -0.3567  -0.3389  -0.3141  -0.3033  -0.2692  -0.2595  -0.2416  -0.2141
    -0.1910  -0.1718  -0.1401  -0.1365  -0.1115  -0.0936  -0.0705  -0.0540
    -0.0393  -0.0203   0.0039   0.0297   0.0509   0.0765   0.0961   0.1087
     0.1320   0.1488   0.1842   0.2055   0.2236   0.2328   0.2796   0.3155
     0.3217   0.3403   0.3494   0.3576   0.3623   0.3804   0.3862   0.4095
     0.4270   0.4454   0.4493   0.4626   0.4735   0.4911   0.5113   0.5247
     0.5356   0.6116   0.6313   0.7132   0.8190   0.9460   1.0654   1.1918
     1.2474   1.3381   1.4092   1.5053   1.5549   1.7229   2.1075   2.2218
     2.4830   2.6263   2.7246   2.7771   2.9089   3.1168   3.3539   3.4817
     3.6226   3.6990   3.8401   4.0052   4.1480   4.1859   4.3143   4.5279
     4.5616   4.6129   4.7275   4.7916   4.9764   5.0107   5.0357   5.0740
     5.1304   5.2034   5.3835   5.4379   5.4543   5.5349   5.5653   5.6119
     5.7323   5.8143   5.8584   5.9969   6.0946   6.1677   6.2437   6.3222
     6.3542   6.4402   6.5096   6.5455   6.5771   6.6911   6.7788   6.8484
     6.8865   6.9586   7.0031   7.0986   7.1223   7.1748   7.2192   7.3310
     7.4221

     the Fermi energy is    -0.6129 ev

!    total energy              =   -2918.92717752 Ry
     Harris-Foulkes estimate   =   -2918.92658504 Ry
     estimated scf accuracy    <       0.00000027 Ry

     The total energy is the sum of the following terms:

     one-electron contribution =  -62275.45215156 Ry
     hartree contribution      =   31437.25596233 Ry
     xc contribution           =   -1336.27910183 Ry
     ewald contribution        =   29255.65719563 Ry
     electric field correction =       0.00003282 Ry
     smearing contrib. (-TS)   =      -0.10911490 Ry

     total magnetization       =    62.64 Bohr mag/cell
     absolute magnetization    =    68.92 Bohr mag/cell

     convergence has been achieved in  19 iterations

     Forces acting on atoms (Ry/au):


     negative rho (up, down):  7.332E-03 2.023E-02
     atom    1 type  1   force =     0.00156214    0.00004660    0.00025220
     atom    2 type  1   force =     0.00027169   -0.00003062    0.00049901
     atom    3 type  1   force =     0.00031270   -0.00003664    0.00058521
     atom    4 type  1   force =     0.00049033   -0.00012013    0.00019975
     atom    5 type  1   force =     0.00046567    0.00029029    0.00010771
     atom    6 type  1   force =    -0.00108319   -0.00012730    0.00096048
     atom    7 type  1   force =     0.00106854    0.00007078   -0.00117295
     atom    8 type  1   force =     0.00057814   -0.00066133   -0.00056777
     atom    9 type  1   force =     0.00055785    0.00058309   -0.00054719
     atom   10 type  1   force =     0.00014703    0.00034408   -0.00090298
     atom   11 type  1   force =     0.00012057   -0.00019717   -0.00084916
     atom   12 type  1   force =     0.00086035   -0.00012882   -0.00065505
     atom   13 type  1   force =    -0.00042584    0.00012668   -0.00042815
     atom   14 type  1   force =    -0.00021879   -0.00014928   -0.00017125
     atom   15 type  1   force =    -0.00020871    0.00002124   -0.00022531
     atom   16 type  1   force =    -0.00013439    0.00010850   -0.00052108
     atom   17 type  1   force =    -0.00008900    0.00000842   -0.00046680
     atom   18 type  1   force =    -0.00068708   -0.00012178   -0.00017506
     atom   19 type  1   force =    -0.00281153   -0.00000189   -0.00332360
     atom   20 type  1   force =     0.00020023   -0.00146990   -0.00788178
     atom   21 type  1   force =     0.00017025    0.00147687   -0.00793031
     atom   22 type  1   force =    -0.00192828    0.00183777   -0.00667110
     atom   23 type  1   force =    -0.00191807   -0.00182910   -0.00664138
     atom   24 type  1   force =    -0.00003732   -0.00000454   -0.00676860
     atom   25 type  1   force =     0.00356255    0.00000198   -0.01526435
     atom   26 type  1   force =     0.00362736   -0.00085346   -0.01609134
     atom   27 type  1   force =     0.00362379    0.00085285   -0.01611344
     atom   28 type  1   force =     0.00108500    0.00054094   -0.00959333
     atom   29 type  1   force =     0.00108430   -0.00053403   -0.00958834
     atom   30 type  1   force =     0.00130203   -0.00000659   -0.00967405
     atom   31 type  1   force =    -0.00738730    0.00000786    0.01324357
     atom   32 type  1   force =    -0.00776987   -0.00047022    0.01207029
     atom   33 type  1   force =    -0.00776938    0.00046376    0.01206243
     atom   34 type  1   force =     0.00320665    0.00005801    0.02747869
     atom   35 type  1   force =     0.00320623   -0.00005612    0.02748063
     atom   36 type  1   force =     0.00331787   -0.00000772    0.02743404
     atom   37 type  2   force =     0.00164748   -0.00003310   -0.00014964

     Total force =     0.065770     Total SCF correction =     0.001907
 !ASE

     Writing output data file calc.save
 
     init_run     :     42.09s CPU     48.53s WALL (       1 calls)
     electrons    :  29392.57s CPU  34040.02s WALL (       8 calls)
     update_pot   :     31.82s CPU     33.62s WALL (       7 calls)
     forces       :    406.15s CPU    420.95s WALL (       8 calls)

     Called by init_run:
     wfcinit      :     26.57s CPU     32.22s WALL (       1 calls)
     potinit      :      1.80s CPU      1.98s WALL (       1 calls)

     Called by electrons:
     c_bands      :  19821.91s CPU  23394.94s WALL (     316 calls)
     sum_band     :   6471.81s CPU   7308.51s WALL (     316 calls)
     v_of_rho     :    195.47s CPU    228.65s WALL (     324 calls)
     newd         :   2910.79s CPU   3104.87s WALL (     324 calls)
     mix_rho      :     47.52s CPU     57.51s WALL (     316 calls)

     Called by c_bands:
     init_us_2    :     81.34s CPU     89.43s WALL (    6410 calls)
     cegterg      :  19360.25s CPU  22912.53s WALL (    3160 calls)

     Called by *egterg:
     h_psi        :   9840.67s CPU  12626.61s WALL (   12783 calls)
     s_psi        :   1330.50s CPU   1378.48s WALL (   12783 calls)
     g_psi        :     47.17s CPU     48.18s WALL (    9613 calls)
     cdiaghg      :   3314.90s CPU   3396.09s WALL (   12703 calls)

     Called by h_psi:
     add_vuspsi   :   1345.74s CPU   1388.28s WALL (   12783 calls)

     General routines
     calbec       :   2076.84s CPU   2134.84s WALL (   16023 calls)
     fft          :    210.38s CPU    245.90s WALL (   10116 calls)
     ffts         :      2.56s CPU      3.49s WALL (    1280 calls)
     fftw         :   5213.47s CPU   8465.50s WALL ( 4455966 calls)
     interpolate  :     25.77s CPU     35.09s WALL (    1280 calls)
     davcio       :      0.05s CPU      1.45s WALL (      10 calls)
 
     Parallel routines
     fft_scatter  :   3083.17s CPU   4952.41s WALL ( 4467362 calls)
 
     PWSCF        :     8h18m CPU        9h36m WALL

 
   This run was terminated on:  23: 3: 0  20Apr2018            

=------------------------------------------------------------------------------=
   JOB DONE.
=------------------------------------------------------------------------------=
