  python dir          : /home/vossj/suncat/lib/python2.7/site-packages/espresso
  espresso dir        : /home/vossj/suncat/esdld/espresso-dynpy-beef/bin
  pseudo dir          : /home/vossj/suncat/esdld/psp
  ase-espresso py git : ffa2778-git


--------------------------------------------------------------------------
WARNING: It appears that your OpenFabrics subsystem is configured to only
allow registering part of your physical memory.  This can cause MPI jobs to
run with erratic performance, hang, and/or crash.

This may be caused by your OpenFabrics vendor limiting the amount of
physical memory that can be registered.  You should investigate the
relevant Linux kernel module parameters that control how much physical
memory can be registered, and increase them to allow registering all
physical memory on your machine.

See this Open MPI FAQ item for more information on these Linux kernel module
parameters:

    http://www.open-mpi.org/faq/?category=openfabrics#ib-locked-pages

  Local host:              sherlock-ln04
  Registerable memory:     16384 MiB
  Total memory:            65314 MiB

Your MPI job will continue, but may be behave poorly and/or hang.
--------------------------------------------------------------------------

     Program PWSCF v.5.1rc2 (svn rev. ) starts on  5Mar2017 at 21: 9:38 

     This program is part of the open-source Quantum ESPRESSO suite
     for quantum simulation of materials; please cite
         "P. Giannozzi et al., J. Phys.:Condens. Matter 21 395502 (2009);
          URL http://www.quantum-espresso.org", 
     in publications or presentations arising from this work. More details at
     http://www.quantum-espresso.org/quote

     Parallel version (MPI), running on     1 processors
     Reading input from pw.inp
     Message from routine read_cards :
     DEPRECATED: no units specified in CELL_PARAMETERS card

     Current dimensions of program PWSCF are:
     Max number of different atomic species (ntypx) = 10
     Max number of k-points (npk) =  40000
     Max angular momentum in pseudopotentials (lmaxx) =  3

     IMPORTANT: XC functional enforced from input :
     Exchange-correlation      = RPBE ( 1  4 28  4 0)
     Any further DFT definition will be discarded
     Please, verify this is what you really want


     Subspace diagonalization in iterative solution of the eigenvalue problem:
     a serial algorithm will be used

 
     G-vector sticks info
     --------------------
     sticks:   dense  smooth     PW     G-vecs:    dense   smooth      PW
     Sum         349     139     55                 4111     1037     259
 
     Generating pointlists ...
     new r_m :   0.4125 (alat units)  0.7795 (a.u.) for type    1


     bravais-lattice index     =            0
     lattice parameter (alat)  =       1.8897  a.u.
     unit-cell volume          =      26.3607 (a.u.)^3
     number of atoms/cell      =            1
     number of atomic types    =            1
     number of electrons       =         9.00
     number of Kohn-Sham states=          104
     kinetic-energy cutoff     =      44.0992  Ry
     charge density cutoff     =     440.9919  Ry
     convergence threshold     =      7.3E-07
     mixing beta               =       0.1000
     number of iterations used =           10  plain     mixing
     Exchange-correlation      = RPBE ( 1  4 28  4 0)
     nstep                     =           50


     celldm(1)=   1.889726  celldm(2)=   0.000000  celldm(3)=   0.000000
     celldm(4)=   0.000000  celldm(5)=   0.000000  celldm(6)=   0.000000

     crystal axes: (cart. coord. in units of alat)
               a(1) = (   0.000000   1.250000   1.250000 )  
               a(2) = (   1.250000   0.000000   1.250000 )  
               a(3) = (   1.250000   1.250000   0.000000 )  

     reciprocal axes: (cart. coord. in units 2 pi/alat)
               b(1) = ( -0.400000  0.400000  0.400000 )  
               b(2) = (  0.400000 -0.400000  0.400000 )  
               b(3) = (  0.400000  0.400000 -0.400000 )  


     PseudoPot. # 1 for Co read from file:
     /home/vossj/suncat/esdld/psp/Co.UPF
     MD5 check sum: f36dda9fe147c5f42efc2a4f7ec0da3d
     Pseudo is Ultrasoft + core correction, Zval =  9.0
     Generated by new atomic code, or converted to UPF format
     Using radial grid of  937 points,  3 beta functions with: 
                l(1) =   1
                l(2) =   2
                l(3) =   2
     Q(r) pseudized with  8 coefficients,  rinner =    1.000   1.000   1.000
                                                       1.000   1.000

     atomic species   valence    mass     pseudopotential
        Co1            9.00    58.93320     Co( 1.00)

     Starting magnetic structure 
     atomic species   magnetization
        Co1          0.444

     48 Sym. Ops., with inversion, found



   Cartesian axes

     site n.     atom                  positions (alat units)
         1           Co1 tau(   1) = (   0.0000000   0.0000000   0.0000000  )

     number of k points=   144  Fermi-Dirac smearing, width (Ry)=  0.0073

     Number of k-points >= 100: set verbosity='high' to print them.

     Dense  grid:     4111 G-vectors     FFT dimensions: (  24,  24,  24)

     Smooth grid:     1037 G-vectors     FFT dimensions: (  15,  15,  15)

     Largest allocated arrays     est. size (Mb)     dimensions
        Kohn-Sham Wavefunctions         0.22 Mb     (     138,  104)
        NL pseudopotentials             0.03 Mb     (     138,   13)
        Each V/rho on FFT grid          0.42 Mb     (   13824,   2)
        Each G-vector array             0.03 Mb     (    4111)
        G-vector shells                 0.00 Mb     (      85)
     Largest temporary arrays     est. size (Mb)     dimensions
        Auxiliary wavefunctions         0.88 Mb     (     138,  416)
        Each subspace H/S matrix        2.64 Mb     (     416,  416)
        Each <psi_i|beta_j> matrix      0.02 Mb     (      13,  104)
        Arrays for rho mixing           2.11 Mb     (   13824,   10)

     Initial potential from superposition of free atoms

     starting charge    8.99973, renormalised to    9.00000
     Starting wfc are    9 randomized atomic wfcs +   95 random wfc

     total cpu time spent up to now is       52.8 secs

     Self-consistent Calculation

     iteration #  1     ecut=    44.10 Ry     beta=0.10
     Davidson diagonalization with overlap

 %%%%%%%%%%%%%%%%%%%%%%%%%%%%%%%%%%%%%%%%%%%%%%%%%%%%%%%%%%%%%%%%%%%%%%%%%%%%%%
     Error in routine diag_bands (1):
     too many bands, or too few plane waves
 %%%%%%%%%%%%%%%%%%%%%%%%%%%%%%%%%%%%%%%%%%%%%%%%%%%%%%%%%%%%%%%%%%%%%%%%%%%%%%

     stopping ...
--------------------------------------------------------------------------
MPI_ABORT was invoked on rank 0 in communicator MPI_COMM_WORLD 
with errorcode 1.

NOTE: invoking MPI_ABORT causes Open MPI to kill all MPI processes.
You may or may not see output from other processes, depending on
exactly when Open MPI kills them.
--------------------------------------------------------------------------
  python dir          : /home/vossj/suncat/lib/python2.7/site-packages/espresso
  espresso dir        : /home/vossj/suncat/esdld/espresso-dynpy-beef/bin
  pseudo dir          : /home/vossj/suncat/esdld/psp
  ase-espresso py git : ffa2778-git


--------------------------------------------------------------------------
WARNING: It appears that your OpenFabrics subsystem is configured to only
allow registering part of your physical memory.  This can cause MPI jobs to
run with erratic performance, hang, and/or crash.

This may be caused by your OpenFabrics vendor limiting the amount of
physical memory that can be registered.  You should investigate the
relevant Linux kernel module parameters that control how much physical
memory can be registered, and increase them to allow registering all
physical memory on your machine.

See this Open MPI FAQ item for more information on these Linux kernel module
parameters:

    http://www.open-mpi.org/faq/?category=openfabrics#ib-locked-pages

  Local host:              sherlock-ln04
  Registerable memory:     16384 MiB
  Total memory:            65314 MiB

Your MPI job will continue, but may be behave poorly and/or hang.
--------------------------------------------------------------------------

     Program PWSCF v.5.1rc2 (svn rev. ) starts on  9Mar2017 at 16:42:43 

     This program is part of the open-source Quantum ESPRESSO suite
     for quantum simulation of materials; please cite
         "P. Giannozzi et al., J. Phys.:Condens. Matter 21 395502 (2009);
          URL http://www.quantum-espresso.org", 
     in publications or presentations arising from this work. More details at
     http://www.quantum-espresso.org/quote

     Parallel version (MPI), running on     1 processors
     Reading input from pw.inp
     Message from routine read_cards :
     DEPRECATED: no units specified in CELL_PARAMETERS card

     Current dimensions of program PWSCF are:
     Max number of different atomic species (ntypx) = 10
     Max number of k-points (npk) =  40000
     Max angular momentum in pseudopotentials (lmaxx) =  3

     IMPORTANT: XC functional enforced from input :
     Exchange-correlation      = RPBE ( 1  4 28  4 0)
     Any further DFT definition will be discarded
     Please, verify this is what you really want


     Subspace diagonalization in iterative solution of the eigenvalue problem:
     a serial algorithm will be used

 
     G-vector sticks info
     --------------------
     sticks:   dense  smooth     PW     G-vecs:    dense   smooth      PW
     Sum         349     139     55                 4111     1037     259
 
     Generating pointlists ...
     new r_m :   0.4125 (alat units)  0.7795 (a.u.) for type    1


     bravais-lattice index     =            0
     lattice parameter (alat)  =       1.8897  a.u.
     unit-cell volume          =      26.3607 (a.u.)^3
     number of atoms/cell      =            1
     number of atomic types    =            1
     number of electrons       =         9.00
     number of Kohn-Sham states=          104
     kinetic-energy cutoff     =      44.0992  Ry
     charge density cutoff     =     440.9919  Ry
     convergence threshold     =      7.3E-07
     mixing beta               =       0.1000
     number of iterations used =           10  plain     mixing
     Exchange-correlation      = RPBE ( 1  4 28  4 0)
     nstep                     =           50


     celldm(1)=   1.889726  celldm(2)=   0.000000  celldm(3)=   0.000000
     celldm(4)=   0.000000  celldm(5)=   0.000000  celldm(6)=   0.000000

     crystal axes: (cart. coord. in units of alat)
               a(1) = (   0.000000   1.250000   1.250000 )  
               a(2) = (   1.250000   0.000000   1.250000 )  
               a(3) = (   1.250000   1.250000   0.000000 )  

     reciprocal axes: (cart. coord. in units 2 pi/alat)
               b(1) = ( -0.400000  0.400000  0.400000 )  
               b(2) = (  0.400000 -0.400000  0.400000 )  
               b(3) = (  0.400000  0.400000 -0.400000 )  


     PseudoPot. # 1 for Co read from file:
     /home/vossj/suncat/esdld/psp/Co.UPF
     MD5 check sum: f36dda9fe147c5f42efc2a4f7ec0da3d
     Pseudo is Ultrasoft + core correction, Zval =  9.0
     Generated by new atomic code, or converted to UPF format
     Using radial grid of  937 points,  3 beta functions with: 
                l(1) =   1
                l(2) =   2
                l(3) =   2
     Q(r) pseudized with  8 coefficients,  rinner =    1.000   1.000   1.000
                                                       1.000   1.000

     atomic species   valence    mass     pseudopotential
        Co1            9.00    58.93320     Co( 1.00)

     Starting magnetic structure 
     atomic species   magnetization
        Co1          0.444

     48 Sym. Ops., with inversion, found



   Cartesian axes

     site n.     atom                  positions (alat units)
         1           Co1 tau(   1) = (   0.0000000   0.0000000   0.0000000  )

     number of k points=   144  Fermi-Dirac smearing, width (Ry)=  0.0073

     Number of k-points >= 100: set verbosity='high' to print them.

     Dense  grid:     4111 G-vectors     FFT dimensions: (  24,  24,  24)

     Smooth grid:     1037 G-vectors     FFT dimensions: (  15,  15,  15)

     Largest allocated arrays     est. size (Mb)     dimensions
        Kohn-Sham Wavefunctions         0.22 Mb     (     138,  104)
        NL pseudopotentials             0.03 Mb     (     138,   13)
        Each V/rho on FFT grid          0.42 Mb     (   13824,   2)
        Each G-vector array             0.03 Mb     (    4111)
        G-vector shells                 0.00 Mb     (      85)
     Largest temporary arrays     est. size (Mb)     dimensions
        Auxiliary wavefunctions         0.88 Mb     (     138,  416)
        Each subspace H/S matrix        2.64 Mb     (     416,  416)
        Each <psi_i|beta_j> matrix      0.02 Mb     (      13,  104)
        Arrays for rho mixing           2.11 Mb     (   13824,   10)

     Initial potential from superposition of free atoms

     starting charge    8.99973, renormalised to    9.00000
     Starting wfc are    9 randomized atomic wfcs +   95 random wfc
  python dir          : /home/vossj/suncat/lib/python2.7/site-packages/espresso
  espresso dir        : /home/vossj/suncat/esdld/espresso-dynpy-beef/bin
  pseudo dir          : /home/vossj/suncat/esdld/psp
  ase-espresso py git : ffa2778-git


--------------------------------------------------------------------------
WARNING: It appears that your OpenFabrics subsystem is configured to only
allow registering part of your physical memory.  This can cause MPI jobs to
run with erratic performance, hang, and/or crash.

This may be caused by your OpenFabrics vendor limiting the amount of
physical memory that can be registered.  You should investigate the
relevant Linux kernel module parameters that control how much physical
memory can be registered, and increase them to allow registering all
physical memory on your machine.

See this Open MPI FAQ item for more information on these Linux kernel module
parameters:

    http://www.open-mpi.org/faq/?category=openfabrics#ib-locked-pages

  Local host:              sherlock-ln04
  Registerable memory:     16384 MiB
  Total memory:            65314 MiB

Your MPI job will continue, but may be behave poorly and/or hang.
--------------------------------------------------------------------------

     Program PWSCF v.5.1rc2 (svn rev. ) starts on  9Mar2017 at 16:44:25 

     This program is part of the open-source Quantum ESPRESSO suite
     for quantum simulation of materials; please cite
         "P. Giannozzi et al., J. Phys.:Condens. Matter 21 395502 (2009);
          URL http://www.quantum-espresso.org", 
     in publications or presentations arising from this work. More details at
     http://www.quantum-espresso.org/quote

     Parallel version (MPI), running on     1 processors
     Reading input from pw.inp
     Message from routine read_cards :
     DEPRECATED: no units specified in CELL_PARAMETERS card

     Current dimensions of program PWSCF are:
     Max number of different atomic species (ntypx) = 10
     Max number of k-points (npk) =  40000
     Max angular momentum in pseudopotentials (lmaxx) =  3

     IMPORTANT: XC functional enforced from input :
     Exchange-correlation      = RPBE ( 1  4 28  4 0)
     Any further DFT definition will be discarded
     Please, verify this is what you really want


     Subspace diagonalization in iterative solution of the eigenvalue problem:
     a serial algorithm will be used

 
     G-vector sticks info
     --------------------
     sticks:   dense  smooth     PW     G-vecs:    dense   smooth      PW
     Sum         349     139     55                 4111     1037     259
 
     Generating pointlists ...
     new r_m :   0.4125 (alat units)  0.7795 (a.u.) for type    1


     bravais-lattice index     =            0
     lattice parameter (alat)  =       1.8897  a.u.
     unit-cell volume          =      26.3607 (a.u.)^3
     number of atoms/cell      =            1
     number of atomic types    =            1
     number of electrons       =         9.00
     number of Kohn-Sham states=          104
     kinetic-energy cutoff     =      44.0992  Ry
     charge density cutoff     =     440.9919  Ry
     convergence threshold     =      7.3E-07
     mixing beta               =       0.1000
     number of iterations used =           10  plain     mixing
     Exchange-correlation      = RPBE ( 1  4 28  4 0)
     nstep                     =           50


     celldm(1)=   1.889726  celldm(2)=   0.000000  celldm(3)=   0.000000
     celldm(4)=   0.000000  celldm(5)=   0.000000  celldm(6)=   0.000000

     crystal axes: (cart. coord. in units of alat)
               a(1) = (   0.000000   1.250000   1.250000 )  
               a(2) = (   1.250000   0.000000   1.250000 )  
               a(3) = (   1.250000   1.250000   0.000000 )  

     reciprocal axes: (cart. coord. in units 2 pi/alat)
               b(1) = ( -0.400000  0.400000  0.400000 )  
               b(2) = (  0.400000 -0.400000  0.400000 )  
               b(3) = (  0.400000  0.400000 -0.400000 )  


     PseudoPot. # 1 for Co read from file:
     /home/vossj/suncat/esdld/psp/Co.UPF
     MD5 check sum: f36dda9fe147c5f42efc2a4f7ec0da3d
     Pseudo is Ultrasoft + core correction, Zval =  9.0
     Generated by new atomic code, or converted to UPF format
     Using radial grid of  937 points,  3 beta functions with: 
                l(1) =   1
                l(2) =   2
                l(3) =   2
     Q(r) pseudized with  8 coefficients,  rinner =    1.000   1.000   1.000
                                                       1.000   1.000

     atomic species   valence    mass     pseudopotential
        Co1            9.00    58.93320     Co( 1.00)

     Starting magnetic structure 
     atomic species   magnetization
        Co1          0.444

     48 Sym. Ops., with inversion, found



   Cartesian axes

     site n.     atom                  positions (alat units)
         1           Co1 tau(   1) = (   0.0000000   0.0000000   0.0000000  )

     number of k points=   144  Fermi-Dirac smearing, width (Ry)=  0.0073

     Number of k-points >= 100: set verbosity='high' to print them.

     Dense  grid:     4111 G-vectors     FFT dimensions: (  24,  24,  24)

     Smooth grid:     1037 G-vectors     FFT dimensions: (  15,  15,  15)

     Largest allocated arrays     est. size (Mb)     dimensions
        Kohn-Sham Wavefunctions         0.22 Mb     (     138,  104)
        NL pseudopotentials             0.03 Mb     (     138,   13)
        Each V/rho on FFT grid          0.42 Mb     (   13824,   2)
        Each G-vector array             0.03 Mb     (    4111)
        G-vector shells                 0.00 Mb     (      85)
     Largest temporary arrays     est. size (Mb)     dimensions
        Auxiliary wavefunctions         0.88 Mb     (     138,  416)
        Each subspace H/S matrix        2.64 Mb     (     416,  416)
        Each <psi_i|beta_j> matrix      0.02 Mb     (      13,  104)
        Arrays for rho mixing           2.11 Mb     (   13824,   10)

     Initial potential from superposition of free atoms

     starting charge    8.99973, renormalised to    9.00000
     Starting wfc are    9 randomized atomic wfcs +   95 random wfc

     total cpu time spent up to now is       59.2 secs

     Self-consistent Calculation

     iteration #  1     ecut=    44.10 Ry     beta=0.10
     Davidson diagonalization with overlap

 %%%%%%%%%%%%%%%%%%%%%%%%%%%%%%%%%%%%%%%%%%%%%%%%%%%%%%%%%%%%%%%%%%%%%%%%%%%%%%
     Error in routine diag_bands (1):
     too many bands, or too few plane waves
 %%%%%%%%%%%%%%%%%%%%%%%%%%%%%%%%%%%%%%%%%%%%%%%%%%%%%%%%%%%%%%%%%%%%%%%%%%%%%%

     stopping ...
--------------------------------------------------------------------------
MPI_ABORT was invoked on rank 0 in communicator MPI_COMM_WORLD 
with errorcode 1.

NOTE: invoking MPI_ABORT causes Open MPI to kill all MPI processes.
You may or may not see output from other processes, depending on
exactly when Open MPI kills them.
--------------------------------------------------------------------------
  python dir          : /home/vossj/suncat/lib/python2.7/site-packages/espresso
  espresso dir        : /home/vossj/suncat/esdld/espresso-dynpy-beef/bin
  pseudo dir          : /home/vossj/suncat/esdld/psp
  ase-espresso py git : ffa2778-git


--------------------------------------------------------------------------
WARNING: It appears that your OpenFabrics subsystem is configured to only
allow registering part of your physical memory.  This can cause MPI jobs to
run with erratic performance, hang, and/or crash.

This may be caused by your OpenFabrics vendor limiting the amount of
physical memory that can be registered.  You should investigate the
relevant Linux kernel module parameters that control how much physical
memory can be registered, and increase them to allow registering all
physical memory on your machine.

See this Open MPI FAQ item for more information on these Linux kernel module
parameters:

    http://www.open-mpi.org/faq/?category=openfabrics#ib-locked-pages

  Local host:              sherlock-ln03
  Registerable memory:     16384 MiB
  Total memory:            65314 MiB

Your MPI job will continue, but may be behave poorly and/or hang.
--------------------------------------------------------------------------

     Program PWSCF v.5.1rc2 (svn rev. ) starts on 10Mar2017 at 17:12:28 

     This program is part of the open-source Quantum ESPRESSO suite
     for quantum simulation of materials; please cite
         "P. Giannozzi et al., J. Phys.:Condens. Matter 21 395502 (2009);
          URL http://www.quantum-espresso.org", 
     in publications or presentations arising from this work. More details at
     http://www.quantum-espresso.org/quote

     Parallel version (MPI), running on     1 processors
     Reading input from pw.inp
     Message from routine read_cards :
     DEPRECATED: no units specified in CELL_PARAMETERS card

     Current dimensions of program PWSCF are:
     Max number of different atomic species (ntypx) = 10
     Max number of k-points (npk) =  40000
     Max angular momentum in pseudopotentials (lmaxx) =  3

     IMPORTANT: XC functional enforced from input :
     Exchange-correlation      = RPBE ( 1  4 28  4 0)
     Any further DFT definition will be discarded
     Please, verify this is what you really want


     Subspace diagonalization in iterative solution of the eigenvalue problem:
     a serial algorithm will be used

 
     G-vector sticks info
     --------------------
     sticks:   dense  smooth     PW     G-vecs:    dense   smooth      PW
     Sum         349     139     55                 4111     1037     259
 
     Generating pointlists ...
     new r_m :   0.4125 (alat units)  0.7795 (a.u.) for type    1


     bravais-lattice index     =            0
     lattice parameter (alat)  =       1.8897  a.u.
     unit-cell volume          =      26.3607 (a.u.)^3
     number of atoms/cell      =            1
     number of atomic types    =            1
     number of electrons       =         9.00
     number of Kohn-Sham states=          104
     kinetic-energy cutoff     =      44.0992  Ry
     charge density cutoff     =     440.9919  Ry
     convergence threshold     =      7.3E-07
     mixing beta               =       0.1000
     number of iterations used =           10  plain     mixing
     Exchange-correlation      = RPBE ( 1  4 28  4 0)
     nstep                     =           50


     celldm(1)=   1.889726  celldm(2)=   0.000000  celldm(3)=   0.000000
     celldm(4)=   0.000000  celldm(5)=   0.000000  celldm(6)=   0.000000

     crystal axes: (cart. coord. in units of alat)
               a(1) = (   0.000000   1.250000   1.250000 )  
               a(2) = (   1.250000   0.000000   1.250000 )  
               a(3) = (   1.250000   1.250000   0.000000 )  

     reciprocal axes: (cart. coord. in units 2 pi/alat)
               b(1) = ( -0.400000  0.400000  0.400000 )  
               b(2) = (  0.400000 -0.400000  0.400000 )  
               b(3) = (  0.400000  0.400000 -0.400000 )  


     PseudoPot. # 1 for Co read from file:
     /home/vossj/suncat/esdld/psp/Co.UPF
     MD5 check sum: f36dda9fe147c5f42efc2a4f7ec0da3d
     Pseudo is Ultrasoft + core correction, Zval =  9.0
     Generated by new atomic code, or converted to UPF format
     Using radial grid of  937 points,  3 beta functions with: 
                l(1) =   1
                l(2) =   2
                l(3) =   2
     Q(r) pseudized with  8 coefficients,  rinner =    1.000   1.000   1.000
                                                       1.000   1.000

     atomic species   valence    mass     pseudopotential
        Co1            9.00    58.93320     Co( 1.00)

     Starting magnetic structure 
     atomic species   magnetization
        Co1          0.444

     48 Sym. Ops., with inversion, found



   Cartesian axes

     site n.     atom                  positions (alat units)
         1           Co1 tau(   1) = (   0.0000000   0.0000000   0.0000000  )

     number of k points=   144  Fermi-Dirac smearing, width (Ry)=  0.0073

     Number of k-points >= 100: set verbosity='high' to print them.

     Dense  grid:     4111 G-vectors     FFT dimensions: (  24,  24,  24)

     Smooth grid:     1037 G-vectors     FFT dimensions: (  15,  15,  15)

     Largest allocated arrays     est. size (Mb)     dimensions
        Kohn-Sham Wavefunctions         0.22 Mb     (     138,  104)
        NL pseudopotentials             0.03 Mb     (     138,   13)
        Each V/rho on FFT grid          0.42 Mb     (   13824,   2)
        Each G-vector array             0.03 Mb     (    4111)
        G-vector shells                 0.00 Mb     (      85)
     Largest temporary arrays     est. size (Mb)     dimensions
        Auxiliary wavefunctions         0.88 Mb     (     138,  416)
        Each subspace H/S matrix        2.64 Mb     (     416,  416)
        Each <psi_i|beta_j> matrix      0.02 Mb     (      13,  104)
        Arrays for rho mixing           2.11 Mb     (   13824,   10)

     Initial potential from superposition of free atoms

     starting charge    8.99973, renormalised to    9.00000
     Starting wfc are    9 randomized atomic wfcs +   95 random wfc

     total cpu time spent up to now is        2.0 secs

     Self-consistent Calculation

     iteration #  1     ecut=    44.10 Ry     beta=0.10
     Davidson diagonalization with overlap

 %%%%%%%%%%%%%%%%%%%%%%%%%%%%%%%%%%%%%%%%%%%%%%%%%%%%%%%%%%%%%%%%%%%%%%%%%%%%%%
     Error in routine diag_bands (1):
     too many bands, or too few plane waves
 %%%%%%%%%%%%%%%%%%%%%%%%%%%%%%%%%%%%%%%%%%%%%%%%%%%%%%%%%%%%%%%%%%%%%%%%%%%%%%

     stopping ...
--------------------------------------------------------------------------
MPI_ABORT was invoked on rank 0 in communicator MPI_COMM_WORLD 
with errorcode 1.

NOTE: invoking MPI_ABORT causes Open MPI to kill all MPI processes.
You may or may not see output from other processes, depending on
exactly when Open MPI kills them.
--------------------------------------------------------------------------
  python dir          : /home/vossj/suncat/lib/python2.7/site-packages/espresso
  espresso dir        : /home/vossj/suncat/esdld/espresso-dynpy-beef/bin
  pseudo dir          : /home/vossj/suncat/esdld/psp
  ase-espresso py git : ffa2778-git


--------------------------------------------------------------------------
WARNING: It appears that your OpenFabrics subsystem is configured to only
allow registering part of your physical memory.  This can cause MPI jobs to
run with erratic performance, hang, and/or crash.

This may be caused by your OpenFabrics vendor limiting the amount of
physical memory that can be registered.  You should investigate the
relevant Linux kernel module parameters that control how much physical
memory can be registered, and increase them to allow registering all
physical memory on your machine.

See this Open MPI FAQ item for more information on these Linux kernel module
parameters:

    http://www.open-mpi.org/faq/?category=openfabrics#ib-locked-pages

  Local host:              sherlock-ln03
  Registerable memory:     16384 MiB
  Total memory:            65314 MiB

Your MPI job will continue, but may be behave poorly and/or hang.
--------------------------------------------------------------------------

     Program PWSCF v.5.1rc2 (svn rev. ) starts on 10Mar2017 at 17:13: 0 

     This program is part of the open-source Quantum ESPRESSO suite
     for quantum simulation of materials; please cite
         "P. Giannozzi et al., J. Phys.:Condens. Matter 21 395502 (2009);
          URL http://www.quantum-espresso.org", 
     in publications or presentations arising from this work. More details at
     http://www.quantum-espresso.org/quote

     Parallel version (MPI), running on     1 processors
     Reading input from pw.inp
     Message from routine read_cards :
     DEPRECATED: no units specified in CELL_PARAMETERS card

     Current dimensions of program PWSCF are:
     Max number of different atomic species (ntypx) = 10
     Max number of k-points (npk) =  40000
     Max angular momentum in pseudopotentials (lmaxx) =  3

     IMPORTANT: XC functional enforced from input :
     Exchange-correlation      = RPBE ( 1  4 28  4 0)
     Any further DFT definition will be discarded
     Please, verify this is what you really want


     Subspace diagonalization in iterative solution of the eigenvalue problem:
     a serial algorithm will be used

 
     G-vector sticks info
     --------------------
     sticks:   dense  smooth     PW     G-vecs:    dense   smooth      PW
     Sum         349     139     55                 4111     1037     259
 
     Generating pointlists ...
     new r_m :   0.4125 (alat units)  0.7795 (a.u.) for type    1


     bravais-lattice index     =            0
     lattice parameter (alat)  =       1.8897  a.u.
     unit-cell volume          =      26.3607 (a.u.)^3
     number of atoms/cell      =            1
     number of atomic types    =            1
     number of electrons       =         9.00
     number of Kohn-Sham states=           14
     kinetic-energy cutoff     =      44.0992  Ry
     charge density cutoff     =     440.9919  Ry
     convergence threshold     =      7.3E-07
     mixing beta               =       0.1000
     number of iterations used =           10  plain     mixing
     Exchange-correlation      = RPBE ( 1  4 28  4 0)
     nstep                     =           50


     celldm(1)=   1.889726  celldm(2)=   0.000000  celldm(3)=   0.000000
     celldm(4)=   0.000000  celldm(5)=   0.000000  celldm(6)=   0.000000

     crystal axes: (cart. coord. in units of alat)
               a(1) = (   0.000000   1.250000   1.250000 )  
               a(2) = (   1.250000   0.000000   1.250000 )  
               a(3) = (   1.250000   1.250000   0.000000 )  

     reciprocal axes: (cart. coord. in units 2 pi/alat)
               b(1) = ( -0.400000  0.400000  0.400000 )  
               b(2) = (  0.400000 -0.400000  0.400000 )  
               b(3) = (  0.400000  0.400000 -0.400000 )  


     PseudoPot. # 1 for Co read from file:
     /home/vossj/suncat/esdld/psp/Co.UPF
     MD5 check sum: f36dda9fe147c5f42efc2a4f7ec0da3d
     Pseudo is Ultrasoft + core correction, Zval =  9.0
     Generated by new atomic code, or converted to UPF format
     Using radial grid of  937 points,  3 beta functions with: 
                l(1) =   1
                l(2) =   2
                l(3) =   2
     Q(r) pseudized with  8 coefficients,  rinner =    1.000   1.000   1.000
                                                       1.000   1.000

     atomic species   valence    mass     pseudopotential
        Co1            9.00    58.93320     Co( 1.00)

     Starting magnetic structure 
     atomic species   magnetization
        Co1          0.444

     48 Sym. Ops., with inversion, found



   Cartesian axes

     site n.     atom                  positions (alat units)
         1           Co1 tau(   1) = (   0.0000000   0.0000000   0.0000000  )

     number of k points=   144  Fermi-Dirac smearing, width (Ry)=  0.0073

     Number of k-points >= 100: set verbosity='high' to print them.

     Dense  grid:     4111 G-vectors     FFT dimensions: (  24,  24,  24)

     Smooth grid:     1037 G-vectors     FFT dimensions: (  15,  15,  15)

     Largest allocated arrays     est. size (Mb)     dimensions
        Kohn-Sham Wavefunctions         0.03 Mb     (     138,   14)
        NL pseudopotentials             0.03 Mb     (     138,   13)
        Each V/rho on FFT grid          0.42 Mb     (   13824,   2)
        Each G-vector array             0.03 Mb     (    4111)
        G-vector shells                 0.00 Mb     (      85)
     Largest temporary arrays     est. size (Mb)     dimensions
        Auxiliary wavefunctions         0.12 Mb     (     138,   56)
        Each subspace H/S matrix        0.05 Mb     (      56,   56)
        Each <psi_i|beta_j> matrix      0.00 Mb     (      13,   14)
        Arrays for rho mixing           2.11 Mb     (   13824,   10)

     Initial potential from superposition of free atoms

     starting charge    8.99973, renormalised to    9.00000
     Starting wfc are    9 randomized atomic wfcs +    5 random wfc

     total cpu time spent up to now is        0.4 secs

     Self-consistent Calculation

     iteration #  1     ecut=    44.10 Ry     beta=0.10
     Davidson diagonalization with overlap
     ethr =  1.00E-02,  avg # of iterations =  5.6
 
     Magnetic moment per site:
     atom:    1    charge:    3.3807    magn:    1.4105    constr:    0.0000

     total cpu time spent up to now is        1.8 secs

     total energy              =     -78.50395303 Ry
     Harris-Foulkes estimate   =     -78.47920745 Ry
     estimated scf accuracy    <       0.17963850 Ry

     total magnetization       =     1.16 Bohr mag/cell
     absolute magnetization    =     1.16 Bohr mag/cell

     iteration #  2     ecut=    44.10 Ry     beta=0.10
     Davidson diagonalization with overlap
     ethr =  2.00E-03,  avg # of iterations =  1.0
 
     Magnetic moment per site:
     atom:    1    charge:    3.4367    magn:    0.8578    constr:    0.0000

     total cpu time spent up to now is        2.4 secs

     total energy              =     -78.60921565 Ry
     Harris-Foulkes estimate   =     -78.50506119 Ry
     estimated scf accuracy    <       0.15256737 Ry

     total magnetization       =     1.07 Bohr mag/cell
     absolute magnetization    =     1.07 Bohr mag/cell

     iteration #  3     ecut=    44.10 Ry     beta=0.10
     Davidson diagonalization with overlap
     ethr =  1.70E-03,  avg # of iterations =  1.0
 
     Magnetic moment per site:
     atom:    1    charge:    3.4280    magn:    0.2285    constr:    0.0000

     total cpu time spent up to now is        2.9 secs

     total energy              =     -78.65465427 Ry
     Harris-Foulkes estimate   =     -78.62938058 Ry
     estimated scf accuracy    <       0.05737945 Ry

     total magnetization       =     0.58 Bohr mag/cell
     absolute magnetization    =     0.58 Bohr mag/cell

     iteration #  4     ecut=    44.10 Ry     beta=0.10
     Davidson diagonalization with overlap
     ethr =  6.38E-04,  avg # of iterations =  1.1
 
     Magnetic moment per site:
     atom:    1    charge:    3.3956    magn:    0.0683    constr:    0.0000

     total cpu time spent up to now is        3.5 secs

     total energy              =     -78.66808475 Ry
     Harris-Foulkes estimate   =     -78.67221788 Ry
     estimated scf accuracy    <       0.00868398 Ry

     total magnetization       =     0.09 Bohr mag/cell
     absolute magnetization    =     0.15 Bohr mag/cell

     iteration #  5     ecut=    44.10 Ry     beta=0.10
     Davidson diagonalization with overlap
     ethr =  9.65E-05,  avg # of iterations =  1.3
 
     Magnetic moment per site:
     atom:    1    charge:    3.3807    magn:    0.0500    constr:    0.0000

     total cpu time spent up to now is        4.1 secs

     total energy              =     -78.67366240 Ry
     Harris-Foulkes estimate   =     -78.67003878 Ry
     estimated scf accuracy    <       0.00168619 Ry

     total magnetization       =    -0.00 Bohr mag/cell
     absolute magnetization    =     0.08 Bohr mag/cell

     iteration #  6     ecut=    44.10 Ry     beta=0.10
     Davidson diagonalization with overlap
     ethr =  1.87E-05,  avg # of iterations =  1.5
 
     Magnetic moment per site:
     atom:    1    charge:    3.3989    magn:   -0.0191    constr:    0.0000

     total cpu time spent up to now is        4.7 secs

     total energy              =     -78.67353844 Ry
     Harris-Foulkes estimate   =     -78.67482680 Ry
     estimated scf accuracy    <       0.00285638 Ry

     total magnetization       =     0.03 Bohr mag/cell
     absolute magnetization    =     0.03 Bohr mag/cell

     iteration #  7     ecut=    44.10 Ry     beta=0.10
     Davidson diagonalization with overlap
     ethr =  1.87E-05,  avg # of iterations =  1.0
 
     Magnetic moment per site:
     atom:    1    charge:    3.3996    magn:    0.0038    constr:    0.0000

     total cpu time spent up to now is        5.3 secs

     total energy              =     -78.67412367 Ry
     Harris-Foulkes estimate   =     -78.67411389 Ry
     estimated scf accuracy    <       0.00005964 Ry

     total magnetization       =    -0.01 Bohr mag/cell
     absolute magnetization    =     0.01 Bohr mag/cell

     iteration #  8     ecut=    44.10 Ry     beta=0.10
     Davidson diagonalization with overlap
     ethr =  6.63E-07,  avg # of iterations =  1.4
 
     Magnetic moment per site:
     atom:    1    charge:    3.4016    magn:    0.0147    constr:    0.0000

     total cpu time spent up to now is        5.9 secs

     total energy              =     -78.67413558 Ry
     Harris-Foulkes estimate   =     -78.67413683 Ry
     estimated scf accuracy    <       0.00001266 Ry

     total magnetization       =     0.00 Bohr mag/cell
     absolute magnetization    =     0.00 Bohr mag/cell

     iteration #  9     ecut=    44.10 Ry     beta=0.10
     Davidson diagonalization with overlap
     ethr =  1.41E-07,  avg # of iterations =  1.2
 
     Magnetic moment per site:
     atom:    1    charge:    3.4009    magn:    0.0005    constr:    0.0000

     total cpu time spent up to now is        6.4 secs

     total energy              =     -78.67415174 Ry
     Harris-Foulkes estimate   =     -78.67414291 Ry
     estimated scf accuracy    <       0.00001806 Ry

     total magnetization       =     0.01 Bohr mag/cell
     absolute magnetization    =     0.01 Bohr mag/cell

     iteration # 10     ecut=    44.10 Ry     beta=0.10
     Davidson diagonalization with overlap
     ethr =  1.41E-07,  avg # of iterations =  1.0
 
     Magnetic moment per site:
     atom:    1    charge:    3.4011    magn:    0.0002    constr:    0.0000

     total cpu time spent up to now is        7.0 secs

     End of self-consistent calculation

     Number of k-points >= 100: set verbosity='high' to print the bands.

     the Fermi energy is    46.1767 ev

!    total energy              =     -78.67418923 Ry
     Harris-Foulkes estimate   =     -78.67415727 Ry
     estimated scf accuracy    <       0.00000003 Ry

     The total energy is the sum of the following terms:

     one-electron contribution =      31.49512153 Ry
     hartree contribution      =       7.11797384 Ry
     xc contribution           =     -38.67692747 Ry
     ewald contribution        =     -78.60902660 Ry
     smearing contrib. (-TS)   =      -0.00133052 Ry

     total magnetization       =     0.00 Bohr mag/cell
     absolute magnetization    =     0.00 Bohr mag/cell

     convergence has been achieved in  10 iterations

     Forces acting on atoms (Ry/au):

     atom    1 type  1   force =     0.00000000    0.00000000    0.00000000

     Total force =     0.000000     Total SCF correction =     0.000000
 !ASE

     Writing output data file calc.save
 
     init_run     :      3.26s CPU      0.34s WALL (       1 calls)
     electrons    :     95.73s CPU      6.64s WALL (       1 calls)
     forces       :      0.78s CPU      0.05s WALL (       1 calls)

     Called by init_run:
     wfcinit      :      3.12s CPU      0.20s WALL (       1 calls)
     potinit      :      0.01s CPU      0.02s WALL (       1 calls)

     Called by electrons:
     c_bands      :     77.30s CPU      5.37s WALL (      10 calls)
     sum_band     :     14.74s CPU      1.02s WALL (      10 calls)
     v_of_rho     :      2.52s CPU      0.19s WALL (      11 calls)
     newd         :      0.95s CPU      0.07s WALL (      11 calls)
     mix_rho      :      0.13s CPU      0.01s WALL (      10 calls)

     Called by c_bands:
     init_us_2    :      1.28s CPU      0.09s WALL (    3168 calls)
     cegterg      :     73.84s CPU      5.15s WALL (    1440 calls)

     Called by *egterg:
     h_psi        :     50.12s CPU      3.56s WALL (    3911 calls)
     s_psi        :      0.99s CPU      0.07s WALL (    3911 calls)
     g_psi        :      1.53s CPU      0.05s WALL (    2327 calls)
     cdiaghg      :     17.36s CPU      1.10s WALL (    3767 calls)

     Called by h_psi:
     add_vuspsi   :      1.47s CPU      0.12s WALL (    3911 calls)

     General routines
     calbec       :      1.19s CPU      0.09s WALL (    5495 calls)
     fft          :      0.65s CPU      0.05s WALL (     350 calls)
     ffts         :      0.02s CPU      0.00s WALL (      42 calls)
     fftw         :     45.23s CPU      3.17s WALL (  113570 calls)
     interpolate  :      0.11s CPU      0.01s WALL (      42 calls)
     davcio       :      0.01s CPU      0.00s WALL (     144 calls)
 
     Parallel routines
     fft_scatter  :      5.71s CPU      0.40s WALL (  113962 calls)
 
     PWSCF        :  1m41.55s CPU     0m 7.25s WALL

 
   This run was terminated on:  17:13: 7  10Mar2017            

=------------------------------------------------------------------------------=
   JOB DONE.
=------------------------------------------------------------------------------=
  python dir          : /home/vossj/suncat/lib/python2.7/site-packages/espresso
  espresso dir        : /home/vossj/suncat/esdld/espresso-dynpy-beef/bin
  pseudo dir          : /home/vossj/suncat/esdld/psp
  ase-espresso py git : ffa2778-git


--------------------------------------------------------------------------
WARNING: It appears that your OpenFabrics subsystem is configured to only
allow registering part of your physical memory.  This can cause MPI jobs to
run with erratic performance, hang, and/or crash.

This may be caused by your OpenFabrics vendor limiting the amount of
physical memory that can be registered.  You should investigate the
relevant Linux kernel module parameters that control how much physical
memory can be registered, and increase them to allow registering all
physical memory on your machine.

See this Open MPI FAQ item for more information on these Linux kernel module
parameters:

    http://www.open-mpi.org/faq/?category=openfabrics#ib-locked-pages

  Local host:              sherlock-ln03
  Registerable memory:     16384 MiB
  Total memory:            65314 MiB

Your MPI job will continue, but may be behave poorly and/or hang.
--------------------------------------------------------------------------

     Program PWSCF v.5.1rc2 (svn rev. ) starts on 10Mar2017 at 17:17:36 

     This program is part of the open-source Quantum ESPRESSO suite
     for quantum simulation of materials; please cite
         "P. Giannozzi et al., J. Phys.:Condens. Matter 21 395502 (2009);
          URL http://www.quantum-espresso.org", 
     in publications or presentations arising from this work. More details at
     http://www.quantum-espresso.org/quote

     Parallel version (MPI), running on     1 processors
     Reading input from pw.inp
     Message from routine read_cards :
     DEPRECATED: no units specified in CELL_PARAMETERS card

     Current dimensions of program PWSCF are:
     Max number of different atomic species (ntypx) = 10
     Max number of k-points (npk) =  40000
     Max angular momentum in pseudopotentials (lmaxx) =  3

     IMPORTANT: XC functional enforced from input :
     Exchange-correlation      = RPBE ( 1  4 28  4 0)
     Any further DFT definition will be discarded
     Please, verify this is what you really want


     Subspace diagonalization in iterative solution of the eigenvalue problem:
     a serial algorithm will be used

 
     G-vector sticks info
     --------------------
     sticks:   dense  smooth     PW     G-vecs:    dense   smooth      PW
     Sum         349     139     55                 4111     1037     259
 
     Generating pointlists ...
     new r_m :   0.4125 (alat units)  0.7795 (a.u.) for type    1


     bravais-lattice index     =            0
     lattice parameter (alat)  =       1.8897  a.u.
     unit-cell volume          =      26.3607 (a.u.)^3
     number of atoms/cell      =            1
     number of atomic types    =            1
     number of electrons       =         9.00
     number of Kohn-Sham states=           14
     kinetic-energy cutoff     =      44.0992  Ry
     charge density cutoff     =     440.9919  Ry
     convergence threshold     =      7.3E-07
     mixing beta               =       0.1000
     number of iterations used =           10  plain     mixing
     Exchange-correlation      = RPBE ( 1  4 28  4 0)
     nstep                     =           50


     celldm(1)=   1.889726  celldm(2)=   0.000000  celldm(3)=   0.000000
     celldm(4)=   0.000000  celldm(5)=   0.000000  celldm(6)=   0.000000

     crystal axes: (cart. coord. in units of alat)
               a(1) = (   0.000000   1.250000   1.250000 )  
               a(2) = (   1.250000   0.000000   1.250000 )  
               a(3) = (   1.250000   1.250000   0.000000 )  

     reciprocal axes: (cart. coord. in units 2 pi/alat)
               b(1) = ( -0.400000  0.400000  0.400000 )  
               b(2) = (  0.400000 -0.400000  0.400000 )  
               b(3) = (  0.400000  0.400000 -0.400000 )  


     PseudoPot. # 1 for Co read from file:
     /home/vossj/suncat/esdld/psp/Co.UPF
     MD5 check sum: f36dda9fe147c5f42efc2a4f7ec0da3d
     Pseudo is Ultrasoft + core correction, Zval =  9.0
     Generated by new atomic code, or converted to UPF format
     Using radial grid of  937 points,  3 beta functions with: 
                l(1) =   1
                l(2) =   2
                l(3) =   2
     Q(r) pseudized with  8 coefficients,  rinner =    1.000   1.000   1.000
                                                       1.000   1.000

     atomic species   valence    mass     pseudopotential
        Co1            9.00    58.93320     Co( 1.00)

     Starting magnetic structure 
     atomic species   magnetization
        Co1          0.444

     48 Sym. Ops., with inversion, found



   Cartesian axes

     site n.     atom                  positions (alat units)
         1           Co1 tau(   1) = (   0.0000000   0.0000000   0.0000000  )

     number of k points=   144  Fermi-Dirac smearing, width (Ry)=  0.0073

     Number of k-points >= 100: set verbosity='high' to print them.

     Dense  grid:     4111 G-vectors     FFT dimensions: (  24,  24,  24)

     Smooth grid:     1037 G-vectors     FFT dimensions: (  15,  15,  15)

     Largest allocated arrays     est. size (Mb)     dimensions
        Kohn-Sham Wavefunctions         0.03 Mb     (     138,   14)
        NL pseudopotentials             0.03 Mb     (     138,   13)
        Each V/rho on FFT grid          0.42 Mb     (   13824,   2)
        Each G-vector array             0.03 Mb     (    4111)
        G-vector shells                 0.00 Mb     (      85)
     Largest temporary arrays     est. size (Mb)     dimensions
        Auxiliary wavefunctions         0.12 Mb     (     138,   56)
        Each subspace H/S matrix        0.05 Mb     (      56,   56)
        Each <psi_i|beta_j> matrix      0.00 Mb     (      13,   14)
        Arrays for rho mixing           2.11 Mb     (   13824,   10)

     Initial potential from superposition of free atoms

     starting charge    8.99973, renormalised to    9.00000
     Starting wfc are    9 randomized atomic wfcs +    5 random wfc

     total cpu time spent up to now is        0.4 secs

     Self-consistent Calculation

     iteration #  1     ecut=    44.10 Ry     beta=0.10
     Davidson diagonalization with overlap
     ethr =  1.00E-02,  avg # of iterations =  5.6
 
     Magnetic moment per site:
     atom:    1    charge:    3.3807    magn:    1.4105    constr:    0.0000

     total cpu time spent up to now is        1.8 secs

     total energy              =     -78.50395303 Ry
     Harris-Foulkes estimate   =     -78.47920745 Ry
     estimated scf accuracy    <       0.17963850 Ry

     total magnetization       =     1.16 Bohr mag/cell
     absolute magnetization    =     1.16 Bohr mag/cell

     iteration #  2     ecut=    44.10 Ry     beta=0.10
     Davidson diagonalization with overlap
     ethr =  2.00E-03,  avg # of iterations =  1.0
 
     Magnetic moment per site:
     atom:    1    charge:    3.4367    magn:    0.8578    constr:    0.0000

     total cpu time spent up to now is        2.4 secs

     total energy              =     -78.60921565 Ry
     Harris-Foulkes estimate   =     -78.50506119 Ry
     estimated scf accuracy    <       0.15256737 Ry

     total magnetization       =     1.07 Bohr mag/cell
     absolute magnetization    =     1.07 Bohr mag/cell

     iteration #  3     ecut=    44.10 Ry     beta=0.10
     Davidson diagonalization with overlap
     ethr =  1.70E-03,  avg # of iterations =  1.0
 
     Magnetic moment per site:
     atom:    1    charge:    3.4280    magn:    0.2285    constr:    0.0000

     total cpu time spent up to now is        3.0 secs

     total energy              =     -78.65465427 Ry
     Harris-Foulkes estimate   =     -78.62938058 Ry
     estimated scf accuracy    <       0.05737945 Ry

     total magnetization       =     0.58 Bohr mag/cell
     absolute magnetization    =     0.58 Bohr mag/cell

     iteration #  4     ecut=    44.10 Ry     beta=0.10
     Davidson diagonalization with overlap
     ethr =  6.38E-04,  avg # of iterations =  1.1
 
     Magnetic moment per site:
     atom:    1    charge:    3.3956    magn:    0.0683    constr:    0.0000

     total cpu time spent up to now is        3.5 secs

     total energy              =     -78.66808475 Ry
     Harris-Foulkes estimate   =     -78.67221788 Ry
     estimated scf accuracy    <       0.00868398 Ry

     total magnetization       =     0.09 Bohr mag/cell
     absolute magnetization    =     0.15 Bohr mag/cell

     iteration #  5     ecut=    44.10 Ry     beta=0.10
     Davidson diagonalization with overlap
     ethr =  9.65E-05,  avg # of iterations =  1.3
 
     Magnetic moment per site:
     atom:    1    charge:    3.3807    magn:    0.0500    constr:    0.0000

     total cpu time spent up to now is        4.1 secs

     total energy              =     -78.67366240 Ry
     Harris-Foulkes estimate   =     -78.67003878 Ry
     estimated scf accuracy    <       0.00168619 Ry

     total magnetization       =    -0.00 Bohr mag/cell
     absolute magnetization    =     0.08 Bohr mag/cell

     iteration #  6     ecut=    44.10 Ry     beta=0.10
     Davidson diagonalization with overlap
     ethr =  1.87E-05,  avg # of iterations =  1.5
 
     Magnetic moment per site:
     atom:    1    charge:    3.3989    magn:   -0.0191    constr:    0.0000

     total cpu time spent up to now is        4.7 secs

     total energy              =     -78.67353844 Ry
     Harris-Foulkes estimate   =     -78.67482680 Ry
     estimated scf accuracy    <       0.00285638 Ry

     total magnetization       =     0.03 Bohr mag/cell
     absolute magnetization    =     0.03 Bohr mag/cell

     iteration #  7     ecut=    44.10 Ry     beta=0.10
     Davidson diagonalization with overlap
     ethr =  1.87E-05,  avg # of iterations =  1.0
 
     Magnetic moment per site:
     atom:    1    charge:    3.3996    magn:    0.0038    constr:    0.0000

     total cpu time spent up to now is        5.3 secs

     total energy              =     -78.67412367 Ry
     Harris-Foulkes estimate   =     -78.67411389 Ry
     estimated scf accuracy    <       0.00005964 Ry

     total magnetization       =    -0.01 Bohr mag/cell
     absolute magnetization    =     0.01 Bohr mag/cell

     iteration #  8     ecut=    44.10 Ry     beta=0.10
     Davidson diagonalization with overlap
     ethr =  6.63E-07,  avg # of iterations =  1.4
 
     Magnetic moment per site:
     atom:    1    charge:    3.4016    magn:    0.0147    constr:    0.0000

     total cpu time spent up to now is        5.9 secs

     total energy              =     -78.67413558 Ry
     Harris-Foulkes estimate   =     -78.67413683 Ry
     estimated scf accuracy    <       0.00001266 Ry

     total magnetization       =     0.00 Bohr mag/cell
     absolute magnetization    =     0.00 Bohr mag/cell

     iteration #  9     ecut=    44.10 Ry     beta=0.10
     Davidson diagonalization with overlap
     ethr =  1.41E-07,  avg # of iterations =  1.2
 
     Magnetic moment per site:
     atom:    1    charge:    3.4009    magn:    0.0005    constr:    0.0000

     total cpu time spent up to now is        6.5 secs

     total energy              =     -78.67415174 Ry
     Harris-Foulkes estimate   =     -78.67414291 Ry
     estimated scf accuracy    <       0.00001806 Ry

     total magnetization       =     0.01 Bohr mag/cell
     absolute magnetization    =     0.01 Bohr mag/cell

     iteration # 10     ecut=    44.10 Ry     beta=0.10
     Davidson diagonalization with overlap
     ethr =  1.41E-07,  avg # of iterations =  1.0
 
     Magnetic moment per site:
     atom:    1    charge:    3.4011    magn:    0.0002    constr:    0.0000

     total cpu time spent up to now is        7.1 secs

     End of self-consistent calculation

     Number of k-points >= 100: set verbosity='high' to print the bands.

     the Fermi energy is    46.1767 ev

!    total energy              =     -78.67418923 Ry
     Harris-Foulkes estimate   =     -78.67415727 Ry
     estimated scf accuracy    <       0.00000003 Ry

     The total energy is the sum of the following terms:

     one-electron contribution =      31.49512153 Ry
     hartree contribution      =       7.11797384 Ry
     xc contribution           =     -38.67692747 Ry
     ewald contribution        =     -78.60902660 Ry
     smearing contrib. (-TS)   =      -0.00133052 Ry

     total magnetization       =     0.00 Bohr mag/cell
     absolute magnetization    =     0.00 Bohr mag/cell

     convergence has been achieved in  10 iterations

     Forces acting on atoms (Ry/au):

     atom    1 type  1   force =     0.00000000    0.00000000    0.00000000

     Total force =     0.000000     Total SCF correction =     0.000000
 !ASE
  python dir          : /home/vossj/suncat/lib/python2.7/site-packages/espresso
  espresso dir        : /home/vossj/suncat/esdld/espresso-dynpy-beef/bin
  pseudo dir          : /home/vossj/suncat/esdld/psp
  ase-espresso py git : ffa2778-git



     Writing output data file calc.save
 
     init_run     :      3.33s CPU      0.34s WALL (       1 calls)
     electrons    :     94.22s CPU      6.69s WALL (       1 calls)
     forces       :      0.76s CPU      0.05s WALL (       1 calls)

     Called by init_run:
     wfcinit      :      3.19s CPU      0.20s WALL (       1 calls)
     potinit      :      0.01s CPU      0.02s WALL (       1 calls)

     Called by electrons:
     c_bands      :     76.28s CPU      5.41s WALL (      10 calls)
     sum_band     :     14.26s CPU      1.02s WALL (      10 calls)
     v_of_rho     :      2.52s CPU      0.19s WALL (      11 calls)
     newd         :      0.94s CPU      0.07s WALL (      11 calls)
     mix_rho      :      0.12s CPU      0.01s WALL (      10 calls)

     Called by c_bands:
     init_us_2    :      1.40s CPU      0.09s WALL (    3168 calls)
     cegterg      :     72.55s CPU      5.18s WALL (    1440 calls)

     Called by *egterg:
     h_psi        :     49.83s CPU      3.60s WALL (    3911 calls)
     s_psi        :      1.04s CPU      0.07s WALL (    3911 calls)
     g_psi        :      1.51s CPU      0.05s WALL (    2327 calls)
     cdiaghg      :     16.62s CPU      1.11s WALL (    3767 calls)

     Called by h_psi:
     add_vuspsi   :      1.56s CPU      0.12s WALL (    3911 calls)

     General routines
     calbec       :      1.20s CPU      0.09s WALL (    5495 calls)
     fft          :      0.61s CPU      0.05s WALL (     350 calls)
     ffts         :      0.01s CPU      0.00s WALL (      42 calls)
     fftw         :     44.95s CPU      3.23s WALL (  113570 calls)
     interpolate  :      0.08s CPU      0.01s WALL (      42 calls)
     davcio       :      0.00s CPU      0.00s WALL (     144 calls)
 
     Parallel routines
     fft_scatter  :      5.41s CPU      0.39s WALL (  113962 calls)
 
     PWSCF        :  1m39.49s CPU     0m 7.30s WALL

 
   This run was terminated on:  17:17:44  10Mar2017            

=------------------------------------------------------------------------------=
   JOB DONE.
=------------------------------------------------------------------------------=
--------------------------------------------------------------------------
WARNING: It appears that your OpenFabrics subsystem is configured to only
allow registering part of your physical memory.  This can cause MPI jobs to
run with erratic performance, hang, and/or crash.

This may be caused by your OpenFabrics vendor limiting the amount of
physical memory that can be registered.  You should investigate the
relevant Linux kernel module parameters that control how much physical
memory can be registered, and increase them to allow registering all
physical memory on your machine.

See this Open MPI FAQ item for more information on these Linux kernel module
parameters:

    http://www.open-mpi.org/faq/?category=openfabrics#ib-locked-pages

  Local host:              sherlock-ln03
  Registerable memory:     16384 MiB
  Total memory:            65314 MiB

Your MPI job will continue, but may be behave poorly and/or hang.
--------------------------------------------------------------------------

     Program PWSCF v.5.1rc2 (svn rev. ) starts on 10Mar2017 at 17:17:44 

     This program is part of the open-source Quantum ESPRESSO suite
     for quantum simulation of materials; please cite
         "P. Giannozzi et al., J. Phys.:Condens. Matter 21 395502 (2009);
          URL http://www.quantum-espresso.org", 
     in publications or presentations arising from this work. More details at
     http://www.quantum-espresso.org/quote

     Parallel version (MPI), running on     1 processors
     Reading input from pw.inp
     Message from routine read_cards :
     DEPRECATED: no units specified in CELL_PARAMETERS card

     Current dimensions of program PWSCF are:
     Max number of different atomic species (ntypx) = 10
     Max number of k-points (npk) =  40000
     Max angular momentum in pseudopotentials (lmaxx) =  3

     IMPORTANT: XC functional enforced from input :
     Exchange-correlation      = RPBE ( 1  4 28  4 0)
     Any further DFT definition will be discarded
     Please, verify this is what you really want


     Subspace diagonalization in iterative solution of the eigenvalue problem:
     a serial algorithm will be used

 
     G-vector sticks info
     --------------------
     sticks:   dense  smooth     PW     G-vecs:    dense   smooth      PW
     Sum         367     151     55                 4693     1243     283
 
     Generating pointlists ...
     new r_m :   0.4125 (alat units)  0.7795 (a.u.) for type    1


     bravais-lattice index     =            0
     lattice parameter (alat)  =       1.8897  a.u.
     unit-cell volume          =      30.5158 (a.u.)^3
     number of atoms/cell      =            1
     number of atomic types    =            1
     number of electrons       =         9.00
     number of Kohn-Sham states=           14
     kinetic-energy cutoff     =      44.0992  Ry
     charge density cutoff     =     440.9919  Ry
     convergence threshold     =      7.3E-07
     mixing beta               =       0.1000
     number of iterations used =           10  plain     mixing
     Exchange-correlation      = RPBE ( 1  4 28  4 0)
     nstep                     =           50


     celldm(1)=   1.889726  celldm(2)=   0.000000  celldm(3)=   0.000000
     celldm(4)=   0.000000  celldm(5)=   0.000000  celldm(6)=   0.000000

     crystal axes: (cart. coord. in units of alat)
               a(1) = (   0.000000   1.312500   1.312500 )  
               a(2) = (   1.312500   0.000000   1.312500 )  
               a(3) = (   1.312500   1.312500   0.000000 )  

     reciprocal axes: (cart. coord. in units 2 pi/alat)
               b(1) = ( -0.380952  0.380952  0.380952 )  
               b(2) = (  0.380952 -0.380952  0.380952 )  
               b(3) = (  0.380952  0.380952 -0.380952 )  


     PseudoPot. # 1 for Co read from file:
     /home/vossj/suncat/esdld/psp/Co.UPF
     MD5 check sum: f36dda9fe147c5f42efc2a4f7ec0da3d
     Pseudo is Ultrasoft + core correction, Zval =  9.0
     Generated by new atomic code, or converted to UPF format
     Using radial grid of  937 points,  3 beta functions with: 
                l(1) =   1
                l(2) =   2
                l(3) =   2
     Q(r) pseudized with  8 coefficients,  rinner =    1.000   1.000   1.000
                                                       1.000   1.000

     atomic species   valence    mass     pseudopotential
        Co1            9.00    58.93320     Co( 1.00)

     Starting magnetic structure 
     atomic species   magnetization
        Co1          0.444

     48 Sym. Ops., with inversion, found



   Cartesian axes

     site n.     atom                  positions (alat units)
         1           Co1 tau(   1) = (   0.0000000   0.0000000   0.0000000  )

     number of k points=   144  Fermi-Dirac smearing, width (Ry)=  0.0073

     Number of k-points >= 100: set verbosity='high' to print them.

     Dense  grid:     4693 G-vectors     FFT dimensions: (  24,  24,  24)

     Smooth grid:     1243 G-vectors     FFT dimensions: (  15,  15,  15)

     Largest allocated arrays     est. size (Mb)     dimensions
        Kohn-Sham Wavefunctions         0.04 Mb     (     169,   14)
        NL pseudopotentials             0.03 Mb     (     169,   13)
        Each V/rho on FFT grid          0.42 Mb     (   13824,   2)
        Each G-vector array             0.04 Mb     (    4693)
        G-vector shells                 0.00 Mb     (      93)
     Largest temporary arrays     est. size (Mb)     dimensions
        Auxiliary wavefunctions         0.14 Mb     (     169,   56)
        Each subspace H/S matrix        0.05 Mb     (      56,   56)
        Each <psi_i|beta_j> matrix      0.00 Mb     (      13,   14)
        Arrays for rho mixing           2.11 Mb     (   13824,   10)

     Initial potential from superposition of free atoms

     starting charge    8.99973, renormalised to    9.00000
     Starting wfc are    9 randomized atomic wfcs +    5 random wfc

     total cpu time spent up to now is        0.4 secs

     Self-consistent Calculation

     iteration #  1     ecut=    44.10 Ry     beta=0.10
     Davidson diagonalization with overlap
     ethr =  1.00E-02,  avg # of iterations =  5.4
 
     Magnetic moment per site:
     atom:    1    charge:    3.3337    magn:    1.3996    constr:    0.0000

     total cpu time spent up to now is        1.8 secs

     total energy              =     -79.05010431 Ry
     Harris-Foulkes estimate   =     -79.02448071 Ry
     estimated scf accuracy    <       0.14074279 Ry

     total magnetization       =     1.26 Bohr mag/cell
     absolute magnetization    =     1.26 Bohr mag/cell

     iteration #  2     ecut=    44.10 Ry     beta=0.10
     Davidson diagonalization with overlap
     ethr =  1.56E-03,  avg # of iterations =  1.0
 
     Magnetic moment per site:
     atom:    1    charge:    3.3452    magn:    0.5131    constr:    0.0000

     total cpu time spent up to now is        2.4 secs

     total energy              =     -79.15973519 Ry
     Harris-Foulkes estimate   =     -79.05081971 Ry
     estimated scf accuracy    <       0.12185954 Ry

     total magnetization       =     1.19 Bohr mag/cell
     absolute magnetization    =     1.19 Bohr mag/cell

     iteration #  3     ecut=    44.10 Ry     beta=0.10
     Davidson diagonalization with overlap
     ethr =  1.35E-03,  avg # of iterations =  1.0
 
     Magnetic moment per site:
     atom:    1    charge:    3.3339    magn:    0.0627    constr:    0.0000

     total cpu time spent up to now is        2.9 secs

     total energy              =     -79.18437237 Ry
     Harris-Foulkes estimate   =     -79.19768259 Ry
     estimated scf accuracy    <       0.02187963 Ry

     total magnetization       =     0.29 Bohr mag/cell
     absolute magnetization    =     0.33 Bohr mag/cell

     iteration #  4     ecut=    44.10 Ry     beta=0.10
     Davidson diagonalization with overlap
     ethr =  2.43E-04,  avg # of iterations =  1.0
 
     Magnetic moment per site:
     atom:    1    charge:    3.3240    magn:    0.3597    constr:    0.0000

     total cpu time spent up to now is        3.5 secs

     total energy              =     -79.19674867 Ry
     Harris-Foulkes estimate   =     -79.19230527 Ry
     estimated scf accuracy    <       0.00634971 Ry

     total magnetization       =    -0.06 Bohr mag/cell
     absolute magnetization    =     0.14 Bohr mag/cell

     iteration #  5     ecut=    44.10 Ry     beta=0.10
     Davidson diagonalization with overlap
     ethr =  7.06E-05,  avg # of iterations =  1.0
 
     Magnetic moment per site:
     atom:    1    charge:    3.3418    magn:    0.5803    constr:    0.0000

     total cpu time spent up to now is        4.1 secs

     total energy              =     -79.19261287 Ry
     Harris-Foulkes estimate   =     -79.20129457 Ry
     estimated scf accuracy    <       0.00872782 Ry

     total magnetization       =     0.18 Bohr mag/cell
     absolute magnetization    =     0.22 Bohr mag/cell

     iteration #  6     ecut=    44.10 Ry     beta=0.10
     Davidson diagonalization with overlap
     ethr =  7.06E-05,  avg # of iterations =  1.0
 
     Magnetic moment per site:
     atom:    1    charge:    3.3171    magn:   -0.0754    constr:    0.0000

     total cpu time spent up to now is        4.7 secs

     total energy              =     -79.19311917 Ry
     Harris-Foulkes estimate   =     -79.19450249 Ry
     estimated scf accuracy    <       0.02325179 Ry

     total magnetization       =     0.35 Bohr mag/cell
     absolute magnetization    =     0.40 Bohr mag/cell

     iteration #  7     ecut=    44.10 Ry     beta=0.10
     Davidson diagonalization with overlap
     ethr =  7.06E-05,  avg # of iterations =  1.2
 
     Magnetic moment per site:
     atom:    1    charge:    3.3186    magn:    0.0796    constr:    0.0000

     total cpu time spent up to now is        5.3 secs

     total energy              =     -79.20532412 Ry
     Harris-Foulkes estimate   =     -79.20601948 Ry
     estimated scf accuracy    <       0.00042522 Ry

     total magnetization       =    -0.05 Bohr mag/cell
     absolute magnetization    =     0.05 Bohr mag/cell

     iteration #  8     ecut=    44.10 Ry     beta=0.10
     Davidson diagonalization with overlap
     ethr =  4.72E-06,  avg # of iterations =  1.2
 
     Magnetic moment per site:
     atom:    1    charge:    3.3215    magn:    0.0556    constr:    0.0000

     total cpu time spent up to now is        5.9 secs

     total energy              =     -79.20614919 Ry
     Harris-Foulkes estimate   =     -79.20601972 Ry
     estimated scf accuracy    <       0.00033929 Ry

     total magnetization       =     0.06 Bohr mag/cell
     absolute magnetization    =     0.06 Bohr mag/cell

     iteration #  9     ecut=    44.10 Ry     beta=0.10
     Davidson diagonalization with overlap
     ethr =  3.77E-06,  avg # of iterations =  1.0
 
     Magnetic moment per site:
     atom:    1    charge:    3.3197    magn:    0.0097    constr:    0.0000

     total cpu time spent up to now is        6.4 secs

     total energy              =     -79.20622540 Ry
     Harris-Foulkes estimate   =     -79.20618363 Ry
     estimated scf accuracy    <       0.00018504 Ry

     total magnetization       =     0.04 Bohr mag/cell
     absolute magnetization    =     0.04 Bohr mag/cell

     iteration # 10     ecut=    44.10 Ry     beta=0.10
     Davidson diagonalization with overlap
     ethr =  2.06E-06,  avg # of iterations =  1.0
 
     Magnetic moment per site:
     atom:    1    charge:    3.3199    magn:    0.0144    constr:    0.0000

     total cpu time spent up to now is        7.0 secs

     total energy              =     -79.20629385 Ry
     Harris-Foulkes estimate   =     -79.20629190 Ry
     estimated scf accuracy    <       0.00000484 Ry

     total magnetization       =     0.01 Bohr mag/cell
     absolute magnetization    =     0.01 Bohr mag/cell

     iteration # 11     ecut=    44.10 Ry     beta=0.10
     Davidson diagonalization with overlap
     ethr =  5.38E-08,  avg # of iterations =  1.0
 
     Magnetic moment per site:
     atom:    1    charge:    3.3196    magn:    0.0005    constr:    0.0000

     total cpu time spent up to now is        7.6 secs

     total energy              =     -79.20630132 Ry
     Harris-Foulkes estimate   =     -79.20629454 Ry
     estimated scf accuracy    <       0.00001129 Ry

     total magnetization       =     0.01 Bohr mag/cell
     absolute magnetization    =     0.01 Bohr mag/cell

     iteration # 12     ecut=    44.10 Ry     beta=0.10
     Davidson diagonalization with overlap
     ethr =  5.38E-08,  avg # of iterations =  1.0
 
     Magnetic moment per site:
     atom:    1    charge:    3.3198    magn:    0.0003    constr:    0.0000

     total cpu time spent up to now is        8.1 secs

     End of self-consistent calculation

     Number of k-points >= 100: set verbosity='high' to print the bands.

     the Fermi energy is    39.3819 ev

!    total energy              =     -79.20632981 Ry
     Harris-Foulkes estimate   =     -79.20630723 Ry
     estimated scf accuracy    <       0.00000001 Ry

     The total energy is the sum of the following terms:

     one-electron contribution =      26.15201216 Ry
     hartree contribution      =       7.72394980 Ry
     xc contribution           =     -38.21479120 Ry
     ewald contribution        =     -74.86573962 Ry
     smearing contrib. (-TS)   =      -0.00176096 Ry

     total magnetization       =     0.00 Bohr mag/cell
     absolute magnetization    =     0.00 Bohr mag/cell

     convergence has been achieved in  12 iterations

     Forces acting on atoms (Ry/au):

     atom    1 type  1   force =     0.00000000    0.00000000    0.00000000

     Total force =     0.000000     Total SCF correction =     0.000000
 !ASE
  python dir          : /home/vossj/suncat/lib/python2.7/site-packages/espresso
  espresso dir        : /home/vossj/suncat/esdld/espresso-dynpy-beef/bin
  pseudo dir          : /home/vossj/suncat/esdld/psp
  ase-espresso py git : ffa2778-git



     Writing output data file calc.save
 
     init_run     :      3.49s CPU      0.36s WALL (       1 calls)
     electrons    :    112.13s CPU      7.76s WALL (       1 calls)
     forces       :      0.81s CPU      0.06s WALL (       1 calls)

     Called by init_run:
     wfcinit      :      3.34s CPU      0.22s WALL (       1 calls)
     potinit      :      0.02s CPU      0.02s WALL (       1 calls)

     Called by electrons:
     c_bands      :     89.79s CPU      6.21s WALL (      12 calls)
     sum_band     :     17.73s CPU      1.23s WALL (      12 calls)
     v_of_rho     :      3.07s CPU      0.23s WALL (      13 calls)
     newd         :      1.26s CPU      0.09s WALL (      13 calls)
     mix_rho      :      0.18s CPU      0.01s WALL (      12 calls)

     Called by c_bands:
     init_us_2    :      1.75s CPU      0.12s WALL (    3744 calls)
     cegterg      :     85.09s CPU      5.91s WALL (    1728 calls)

     Called by *egterg:
     h_psi        :     58.24s CPU      4.13s WALL (    4315 calls)
     s_psi        :      1.22s CPU      0.08s WALL (    4315 calls)
     g_psi        :      1.57s CPU      0.06s WALL (    2443 calls)
     cdiaghg      :     18.01s CPU      1.16s WALL (    4171 calls)

     Called by h_psi:
     add_vuspsi   :      2.19s CPU      0.16s WALL (    4315 calls)

     General routines
     calbec       :      1.67s CPU      0.11s WALL (    6187 calls)
     fft          :      0.78s CPU      0.06s WALL (     412 calls)
     ffts         :      0.02s CPU      0.00s WALL (      50 calls)
     fftw         :     52.31s CPU      3.69s WALL (  133054 calls)
     interpolate  :      0.12s CPU      0.01s WALL (      50 calls)
     davcio       :      0.01s CPU      0.00s WALL (     144 calls)
 
     Parallel routines
     fft_scatter  :      6.28s CPU      0.45s WALL (  133516 calls)
 
     PWSCF        :  1m58.93s CPU     0m 8.44s WALL

 
   This run was terminated on:  17:17:52  10Mar2017            

=------------------------------------------------------------------------------=
   JOB DONE.
=------------------------------------------------------------------------------=
--------------------------------------------------------------------------
WARNING: It appears that your OpenFabrics subsystem is configured to only
allow registering part of your physical memory.  This can cause MPI jobs to
run with erratic performance, hang, and/or crash.

This may be caused by your OpenFabrics vendor limiting the amount of
physical memory that can be registered.  You should investigate the
relevant Linux kernel module parameters that control how much physical
memory can be registered, and increase them to allow registering all
physical memory on your machine.

See this Open MPI FAQ item for more information on these Linux kernel module
parameters:

    http://www.open-mpi.org/faq/?category=openfabrics#ib-locked-pages

  Local host:              sherlock-ln03
  Registerable memory:     16384 MiB
  Total memory:            65314 MiB

Your MPI job will continue, but may be behave poorly and/or hang.
--------------------------------------------------------------------------

     Program PWSCF v.5.1rc2 (svn rev. ) starts on 10Mar2017 at 17:17:52 

     This program is part of the open-source Quantum ESPRESSO suite
     for quantum simulation of materials; please cite
         "P. Giannozzi et al., J. Phys.:Condens. Matter 21 395502 (2009);
          URL http://www.quantum-espresso.org", 
     in publications or presentations arising from this work. More details at
     http://www.quantum-espresso.org/quote

     Parallel version (MPI), running on     1 processors
     Reading input from pw.inp
     Message from routine read_cards :
     DEPRECATED: no units specified in CELL_PARAMETERS card

     Current dimensions of program PWSCF are:
     Max number of different atomic species (ntypx) = 10
     Max number of k-points (npk) =  40000
     Max angular momentum in pseudopotentials (lmaxx) =  3

     IMPORTANT: XC functional enforced from input :
     Exchange-correlation      = RPBE ( 1  4 28  4 0)
     Any further DFT definition will be discarded
     Please, verify this is what you really want


     Subspace diagonalization in iterative solution of the eigenvalue problem:
     a serial algorithm will be used

 
     G-vector sticks info
     --------------------
     sticks:   dense  smooth     PW     G-vecs:    dense   smooth      PW
     Sum         421     163     61                 5577     1411     331
 
     Generating pointlists ...
     new r_m :   0.4125 (alat units)  0.7795 (a.u.) for type    1


     bravais-lattice index     =            0
     lattice parameter (alat)  =       1.8897  a.u.
     unit-cell volume          =      35.0861 (a.u.)^3
     number of atoms/cell      =            1
     number of atomic types    =            1
     number of electrons       =         9.00
     number of Kohn-Sham states=           14
     kinetic-energy cutoff     =      44.0992  Ry
     charge density cutoff     =     440.9919  Ry
     convergence threshold     =      7.3E-07
     mixing beta               =       0.1000
     number of iterations used =           10  plain     mixing
     Exchange-correlation      = RPBE ( 1  4 28  4 0)
     nstep                     =           50


     celldm(1)=   1.889726  celldm(2)=   0.000000  celldm(3)=   0.000000
     celldm(4)=   0.000000  celldm(5)=   0.000000  celldm(6)=   0.000000

     crystal axes: (cart. coord. in units of alat)
               a(1) = (   0.000000   1.375000   1.375000 )  
               a(2) = (   1.375000   0.000000   1.375000 )  
               a(3) = (   1.375000   1.375000   0.000000 )  

     reciprocal axes: (cart. coord. in units 2 pi/alat)
               b(1) = ( -0.363636  0.363636  0.363636 )  
               b(2) = (  0.363636 -0.363636  0.363636 )  
               b(3) = (  0.363636  0.363636 -0.363636 )  


     PseudoPot. # 1 for Co read from file:
     /home/vossj/suncat/esdld/psp/Co.UPF
     MD5 check sum: f36dda9fe147c5f42efc2a4f7ec0da3d
     Pseudo is Ultrasoft + core correction, Zval =  9.0
     Generated by new atomic code, or converted to UPF format
     Using radial grid of  937 points,  3 beta functions with: 
                l(1) =   1
                l(2) =   2
                l(3) =   2
     Q(r) pseudized with  8 coefficients,  rinner =    1.000   1.000   1.000
                                                       1.000   1.000

     atomic species   valence    mass     pseudopotential
        Co1            9.00    58.93320     Co( 1.00)

     Starting magnetic structure 
     atomic species   magnetization
        Co1          0.444

     48 Sym. Ops., with inversion, found



   Cartesian axes

     site n.     atom                  positions (alat units)
         1           Co1 tau(   1) = (   0.0000000   0.0000000   0.0000000  )

     number of k points=   144  Fermi-Dirac smearing, width (Ry)=  0.0073

     Number of k-points >= 100: set verbosity='high' to print them.

     Dense  grid:     5577 G-vectors     FFT dimensions: (  25,  25,  25)

     Smooth grid:     1411 G-vectors     FFT dimensions: (  15,  15,  15)

     Largest allocated arrays     est. size (Mb)     dimensions
        Kohn-Sham Wavefunctions         0.04 Mb     (     190,   14)
        NL pseudopotentials             0.04 Mb     (     190,   13)
        Each V/rho on FFT grid          0.48 Mb     (   15625,   2)
        Each G-vector array             0.04 Mb     (    5577)
        G-vector shells                 0.00 Mb     (     103)
     Largest temporary arrays     est. size (Mb)     dimensions
        Auxiliary wavefunctions         0.16 Mb     (     190,   56)
        Each subspace H/S matrix        0.05 Mb     (      56,   56)
        Each <psi_i|beta_j> matrix      0.00 Mb     (      13,   14)
        Arrays for rho mixing           2.38 Mb     (   15625,   10)

     Initial potential from superposition of free atoms

     starting charge    8.99973, renormalised to    9.00000
     Starting wfc are    9 randomized atomic wfcs +    5 random wfc

     total cpu time spent up to now is        0.4 secs

[...]

     total energy              =     -80.17012782 Ry
     Harris-Foulkes estimate   =     -80.17028127 Ry
     estimated scf accuracy    <       0.00333089 Ry

     total magnetization       =     1.65 Bohr mag/cell
     absolute magnetization    =     1.83 Bohr mag/cell

     iteration #  5     ecut=    44.10 Ry     beta=0.10
     Davidson diagonalization with overlap
     ethr =  3.70E-05,  avg # of iterations =  1.2
 
     Magnetic moment per site:
     atom:    1    charge:    3.2083    magn:    0.9568    constr:    0.0000

     total cpu time spent up to now is        3.7 secs

     total energy              =     -80.17090540 Ry
     Harris-Foulkes estimate   =     -80.17088237 Ry
     estimated scf accuracy    <       0.00004822 Ry

     total magnetization       =     1.70 Bohr mag/cell
     absolute magnetization    =     1.85 Bohr mag/cell

     iteration #  6     ecut=    44.10 Ry     beta=0.10
     Davidson diagonalization with overlap
     ethr =  5.36E-07,  avg # of iterations =  2.2
 
     Magnetic moment per site:
     atom:    1    charge:    3.2054    magn:    0.9539    constr:    0.0000

     total cpu time spent up to now is        4.4 secs

     total energy              =     -80.17101497 Ry
     Harris-Foulkes estimate   =     -80.17094859 Ry
     estimated scf accuracy    <       0.00013270 Ry

     total magnetization       =     1.71 Bohr mag/cell
     absolute magnetization    =     1.86 Bohr mag/cell

     iteration #  7     ecut=    44.10 Ry     beta=0.10
     Davidson diagonalization with overlap
     ethr =  5.36E-07,  avg # of iterations =  2.0
 
     Magnetic moment per site:
     atom:    1    charge:    3.2066    magn:    0.9625    constr:    0.0000

     total cpu time spent up to now is        5.0 secs

     total energy              =     -80.17111673 Ry
     Harris-Foulkes estimate   =     -80.17108562 Ry
     estimated scf accuracy    <       0.00001742 Ry

     total magnetization       =     1.70 Bohr mag/cell
     absolute magnetization    =     1.87 Bohr mag/cell

     iteration #  8     ecut=    44.10 Ry     beta=0.10
     Davidson diagonalization with overlap
     ethr =  1.94E-07,  avg # of iterations =  1.2
 
     Magnetic moment per site:
     atom:    1    charge:    3.2058    magn:    0.9645    constr:    0.0000

     total cpu time spent up to now is        5.4 secs

     total energy              =     -80.17113253 Ry
     Harris-Foulkes estimate   =     -80.17112594 Ry
     estimated scf accuracy    <       0.00002327 Ry

     total magnetization       =     1.70 Bohr mag/cell
     absolute magnetization    =     1.87 Bohr mag/cell

     iteration #  9     ecut=    44.10 Ry     beta=0.10
     Davidson diagonalization with overlap
     ethr =  1.94E-07,  avg # of iterations =  1.1
 
     Magnetic moment per site:
     atom:    1    charge:    3.2065    magn:    0.9656    constr:    0.0000

     total cpu time spent up to now is        5.9 secs

     End of self-consistent calculation

     Number of k-points >= 100: set verbosity='high' to print the bands.

     the Fermi energy is    13.2462 ev

!    total energy              =     -80.17121835 Ry
     Harris-Foulkes estimate   =     -80.17113747 Ry
     estimated scf accuracy    <       0.00000045 Ry

     The total energy is the sum of the following terms:

     one-electron contribution =      -2.23373470 Ry
     hartree contribution      =      13.94180410 Ry
     xc contribution           =     -36.89871517 Ry
     ewald contribution        =     -54.97772991 Ry
     smearing contrib. (-TS)   =      -0.00284268 Ry

     total magnetization       =     1.70 Bohr mag/cell
     absolute magnetization    =     1.87 Bohr mag/cell

     convergence has been achieved in   9 iterations

     Forces acting on atoms (Ry/au):

     atom    1 type  1   force =     0.00000000    0.00000000    0.00000000

     Total force =     0.000000     Total SCF correction =     0.000000
 !ASE
  python dir          : /home/vossj/suncat/lib/python2.7/site-packages/espresso
  espresso dir        : /home/vossj/suncat/esdld/espresso-dynpy-beef/bin
  pseudo dir          : /home/vossj/suncat/esdld/psp
  ase-espresso py git : ffa2778-git



     Writing output data file calc.save
 
     init_run     :      0.16s CPU      0.18s WALL (       1 calls)
     electrons    :      5.41s CPU      5.70s WALL (       1 calls)
     forces       :      0.02s CPU      0.02s WALL (       1 calls)

     Called by init_run:
     wfcinit      :      0.13s CPU      0.15s WALL (       1 calls)
     potinit      :      0.00s CPU      0.01s WALL (       1 calls)

     Called by electrons:
     c_bands      :      4.70s CPU      4.91s WALL (      10 calls)
     sum_band     :      0.66s CPU      0.73s WALL (      10 calls)
     v_of_rho     :      0.03s CPU      0.03s WALL (      10 calls)
     newd         :      0.01s CPU      0.01s WALL (      10 calls)
     mix_rho      :      0.00s CPU      0.00s WALL (      10 calls)

     Called by c_bands:
     init_us_2    :      0.03s CPU      0.03s WALL (    3168 calls)
     cegterg      :      4.63s CPU      4.82s WALL (    1440 calls)

     Called by *egterg:
     h_psi        :      2.74s CPU      2.94s WALL (    4092 calls)
     s_psi        :      0.02s CPU      0.03s WALL (    4092 calls)
     g_psi        :      0.01s CPU      0.01s WALL (    2508 calls)
     cdiaghg      :      1.27s CPU      1.29s WALL (    3804 calls)

     Called by h_psi:
     add_vuspsi   :      0.02s CPU      0.04s WALL (    4092 calls)

     General routines
     calbec       :      0.13s CPU      0.16s WALL (    5676 calls)
     fft          :      0.02s CPU      0.02s WALL (     327 calls)
     ffts         :      0.00s CPU      0.00s WALL (      40 calls)
     fftw         :      2.95s CPU      3.11s WALL (  113124 calls)
     interpolate  :      0.00s CPU      0.00s WALL (      40 calls)
     davcio       :      0.00s CPU      0.00s WALL (     144 calls)
 
     Parallel routines
     fft_scatter  :      1.90s CPU      1.99s WALL (  113491 calls)
 
     PWSCF        :     5.82s CPU         6.45s WALL

 
   This run was terminated on:  18:53:57  10Mar2017            

=------------------------------------------------------------------------------=
   JOB DONE.
=------------------------------------------------------------------------------=

     Program PWSCF v.5.1rc2 (svn rev. ) starts on 10Mar2017 at 18:53:58 

     This program is part of the open-source Quantum ESPRESSO suite
     for quantum simulation of materials; please cite
         "P. Giannozzi et al., J. Phys.:Condens. Matter 21 395502 (2009);
          URL http://www.quantum-espresso.org", 
     in publications or presentations arising from this work. More details at
     http://www.quantum-espresso.org/quote

     Parallel version (MPI), running on    16 processors
     R & G space division:  proc/nbgrp/npool/nimage =      16
     Reading input from pw.inp
     Message from routine read_cards :
     DEPRECATED: no units specified in CELL_PARAMETERS card

     Current dimensions of program PWSCF are:
     Max number of different atomic species (ntypx) = 10
     Max number of k-points (npk) =  40000
     Max angular momentum in pseudopotentials (lmaxx) =  3

     IMPORTANT: XC functional enforced from input :
     Exchange-correlation      = RPBE ( 1  4 28  4 0)
     Any further DFT definition will be discarded
     Please, verify this is what you really want


     Subspace diagonalization in iterative solution of the eigenvalue problem:
     a serial algorithm will be used

 
     Parallelization info
     --------------------
     sticks:   dense  smooth     PW     G-vecs:    dense   smooth      PW
     Min          42      17      5                  750      189      36
     Max          43      18      6                  754      195      41
     Sum         685     283     91                12039     3071     609
 
     Generating pointlists ...
     new r_m :   0.4125 (alat units)  0.7795 (a.u.) for type    1


     bravais-lattice index     =            0
     lattice parameter (alat)  =       1.8897  a.u.
     unit-cell volume          =      77.0691 (a.u.)^3
     number of atoms/cell      =            1
     number of atomic types    =            1
     number of electrons       =         9.00
     number of Kohn-Sham states=           14
     kinetic-energy cutoff     =      44.0992  Ry
     charge density cutoff     =     440.9919  Ry
     convergence threshold     =      7.3E-07
     mixing beta               =       0.1000
     number of iterations used =           10  plain     mixing
     Exchange-correlation      = RPBE ( 1  4 28  4 0)
     nstep                     =           50


     celldm(1)=   1.889726  celldm(2)=   0.000000  celldm(3)=   0.000000
     celldm(4)=   0.000000  celldm(5)=   0.000000  celldm(6)=   0.000000

     crystal axes: (cart. coord. in units of alat)
               a(1) = (   0.000000   1.787384   1.787384 )  
               a(2) = (   1.787384   0.000000   1.787384 )  
               a(3) = (   1.787384   1.787384   0.000000 )  

     reciprocal axes: (cart. coord. in units 2 pi/alat)
               b(1) = ( -0.279738  0.279738  0.279738 )  
               b(2) = (  0.279738 -0.279738  0.279738 )  
               b(3) = (  0.279738  0.279738 -0.279738 )  


     PseudoPot. # 1 for Co read from file:
     /home/vossj/suncat/esdld/psp/Co.UPF
     MD5 check sum: f36dda9fe147c5f42efc2a4f7ec0da3d
     Pseudo is Ultrasoft + core correction, Zval =  9.0
     Generated by new atomic code, or converted to UPF format
     Using radial grid of  937 points,  3 beta functions with: 
                l(1) =   1
                l(2) =   2
                l(3) =   2
     Q(r) pseudized with  8 coefficients,  rinner =    1.000   1.000   1.000
                                                       1.000   1.000

     atomic species   valence    mass     pseudopotential
        Co1            9.00    58.93320     Co( 1.00)

     Starting magnetic structure 
     atomic species   magnetization
        Co1          0.444

     48 Sym. Ops., with inversion, found



   Cartesian axes

     site n.     atom                  positions (alat units)
         1           Co1 tau(   1) = (   0.0000000   0.0000000   0.0000000  )

     number of k points=   144  Fermi-Dirac smearing, width (Ry)=  0.0073

     Number of k-points >= 100: set verbosity='high' to print them.

     Dense  grid:    12039 G-vectors     FFT dimensions: (  32,  32,  32)

     Smooth grid:     3071 G-vectors     FFT dimensions: (  24,  24,  24)

     Largest allocated arrays     est. size (Mb)     dimensions
        Kohn-Sham Wavefunctions         0.01 Mb     (      27,   14)
        NL pseudopotentials             0.01 Mb     (      27,   13)
        Each V/rho on FFT grid          0.06 Mb     (    2048,   2)
        Each G-vector array             0.01 Mb     (     753)
        G-vector shells                 0.00 Mb     (     166)
     Largest temporary arrays     est. size (Mb)     dimensions
        Auxiliary wavefunctions         0.02 Mb     (      27,   56)
        Each subspace H/S matrix        0.05 Mb     (      56,   56)
        Each <psi_i|beta_j> matrix      0.00 Mb     (      13,   14)
        Arrays for rho mixing           0.31 Mb     (    2048,   10)

     Initial potential from superposition of free atoms

     starting charge    8.99973, renormalised to    9.00000
     Starting wfc are    9 randomized atomic wfcs +    5 random wfc

     total cpu time spent up to now is        0.2 secs

     Self-consistent Calculation

     iteration #  1     ecut=    44.10 Ry     beta=0.10
     Davidson diagonalization with overlap
     ethr =  1.00E-02,  avg # of iterations =  5.5

     Threshold (ethr) on eigenvalues was too large:
     Diagonalizing with lowered threshold

     Davidson diagonalization with overlap
     ethr =  4.39E-04,  avg # of iterations =  1.1
 
     Magnetic moment per site:
     atom:    1    charge:    3.2149    magn:    1.3907    constr:    0.0000

     total cpu time spent up to now is        1.9 secs

     total energy              =     -80.11099576 Ry
     Harris-Foulkes estimate   =     -80.09986572 Ry
     estimated scf accuracy    <       0.03941818 Ry

     total magnetization       =     2.10 Bohr mag/cell
     absolute magnetization    =     2.10 Bohr mag/cell

     iteration #  2     ecut=    44.10 Ry     beta=0.10
     Davidson diagonalization with overlap
     ethr =  4.38E-04,  avg # of iterations =  1.0
 
     Magnetic moment per site:
     atom:    1    charge:    3.1960    magn:    1.1769    constr:    0.0000

     total cpu time spent up to now is        2.4 secs

     total energy              =     -80.15082591 Ry
     Harris-Foulkes estimate   =     -80.11120120 Ry
     estimated scf accuracy    <       0.03166175 Ry

     total magnetization       =     2.06 Bohr mag/cell
     absolute magnetization    =     2.06 Bohr mag/cell

     iteration #  3     ecut=    44.10 Ry     beta=0.10
     Davidson diagonalization with overlap
     ethr =  3.52E-04,  avg # of iterations =  1.0
 
     Magnetic moment per site:
     atom:    1    charge:    3.2163    magn:    0.8799    constr:    0.0000

     total cpu time spent up to now is        2.8 secs

     total energy              =     -80.16440376 Ry
     Harris-Foulkes estimate   =     -80.15523117 Ry
     estimated scf accuracy    <       0.01172016 Ry

     total magnetization       =     1.83 Bohr mag/cell
     absolute magnetization    =     1.87 Bohr mag/cell

     iteration #  4     ecut=    44.10 Ry     beta=0.10
     Davidson diagonalization with overlap
     ethr =  1.30E-04,  avg # of iterations =  1.0
 
     Magnetic moment per site:
     atom:    1    charge:    3.2053    magn:    0.9488    constr:    0.0000

     total cpu time spent up to now is        3.3 secs

     total energy              =     -80.17013237 Ry
     Harris-Foulkes estimate   =     -80.17027879 Ry
     estimated scf accuracy    <       0.00333463 Ry

     total magnetization       =     1.65 Bohr mag/cell
     absolute magnetization    =     1.83 Bohr mag/cell

     iteration #  5     ecut=    44.10 Ry     beta=0.10
     Davidson diagonalization with overlap
     ethr =  3.71E-05,  avg # of iterations =  1.2
 
     Magnetic moment per site:
     atom:    1    charge:    3.2083    magn:    0.9569    constr:    0.0000

     total cpu time spent up to now is        3.8 secs

     total energy              =     -80.17091119 Ry
     Harris-Foulkes estimate   =     -80.17088782 Ry
     estimated scf accuracy    <       0.00004795 Ry

     total magnetization       =     1.70 Bohr mag/cell
     absolute magnetization    =     1.85 Bohr mag/cell

     iteration #  6     ecut=    44.10 Ry     beta=0.10
     Davidson diagonalization with overlap
     ethr =  5.33E-07,  avg # of iterations =  2.3
 
     Magnetic moment per site:
     atom:    1    charge:    3.2054    magn:    0.9540    constr:    0.0000

     total cpu time spent up to now is        4.4 secs

     total energy              =     -80.17102057 Ry
     Harris-Foulkes estimate   =     -80.17095430 Ry
     estimated scf accuracy    <       0.00013294 Ry

     total magnetization       =     1.71 Bohr mag/cell
     absolute magnetization    =     1.86 Bohr mag/cell

     iteration #  7     ecut=    44.10 Ry     beta=0.10
     Davidson diagonalization with overlap
     ethr =  5.33E-07,  avg # of iterations =  2.0
 
     Magnetic moment per site:
     atom:    1    charge:    3.2066    magn:    0.9625    constr:    0.0000

     total cpu time spent up to now is        5.0 secs

     total energy              =     -80.17112232 Ry
     Harris-Foulkes estimate   =     -80.17109127 Ry
     estimated scf accuracy    <       0.00001747 Ry

     total magnetization       =     1.70 Bohr mag/cell
     absolute magnetization    =     1.87 Bohr mag/cell

     iteration #  8     ecut=    44.10 Ry     beta=0.10
     Davidson diagonalization with overlap
     ethr =  1.94E-07,  avg # of iterations =  1.2
 
     Magnetic moment per site:
     atom:    1    charge:    3.2058    magn:    0.9646    constr:    0.0000

     total cpu time spent up to now is        5.4 secs

     total energy              =     -80.17113820 Ry
     Harris-Foulkes estimate   =     -80.17113158 Ry
     estimated scf accuracy    <       0.00002329 Ry

     total magnetization       =     1.70 Bohr mag/cell
     absolute magnetization    =     1.87 Bohr mag/cell

     iteration #  9     ecut=    44.10 Ry     beta=0.10
     Davidson diagonalization with overlap
     ethr =  1.94E-07,  avg # of iterations =  1.1
 
     Magnetic moment per site:
     atom:    1    charge:    3.2065    magn:    0.9657    constr:    0.0000

     total cpu time spent up to now is        5.9 secs

     End of self-consistent calculation

     Number of k-points >= 100: set verbosity='high' to print the bands.

     the Fermi energy is    13.2437 ev

!    total energy              =     -80.17122407 Ry
     Harris-Foulkes estimate   =     -80.17114314 Ry
     estimated scf accuracy    <       0.00000044 Ry

     The total energy is the sum of the following terms:

     one-electron contribution =      -2.23786696 Ry
     hartree contribution      =      13.94301118 Ry
     xc contribution           =     -36.89861178 Ry
     ewald contribution        =     -54.97491386 Ry
     smearing contrib. (-TS)   =      -0.00284266 Ry

     total magnetization       =     1.70 Bohr mag/cell
     absolute magnetization    =     1.87 Bohr mag/cell

     convergence has been achieved in   9 iterations

     Forces acting on atoms (Ry/au):

     atom    1 type  1   force =     0.00000000    0.00000000    0.00000000

     Total force =     0.000000     Total SCF correction =     0.000000
 !ASE

     Writing output data file calc.save
 
     init_run     :      0.17s CPU      0.19s WALL (       1 calls)
     electrons    :      5.37s CPU      5.67s WALL (       1 calls)
     forces       :      0.04s CPU      0.04s WALL (       1 calls)

     Called by init_run:
     wfcinit      :      0.14s CPU      0.15s WALL (       1 calls)
     potinit      :      0.00s CPU      0.01s WALL (       1 calls)

     Called by electrons:
     c_bands      :      4.65s CPU      4.83s WALL (      10 calls)
     sum_band     :      0.66s CPU      0.77s WALL (      10 calls)
     v_of_rho     :      0.03s CPU      0.03s WALL (      10 calls)
     newd         :      0.01s CPU      0.02s WALL (      10 calls)
     mix_rho      :      0.01s CPU      0.01s WALL (      10 calls)

     Called by c_bands:
     init_us_2    :      0.02s CPU      0.03s WALL (    3168 calls)
     cegterg      :      4.56s CPU      4.73s WALL (    1440 calls)

     Called by *egterg:
     h_psi        :      2.75s CPU      2.89s WALL (    4092 calls)
     s_psi        :      0.04s CPU      0.03s WALL (    4092 calls)
     g_psi        :      0.01s CPU      0.01s WALL (    2508 calls)
     cdiaghg      :      1.25s CPU      1.27s WALL (    3804 calls)

     Called by h_psi:
     add_vuspsi   :      0.03s CPU      0.04s WALL (    4092 calls)

     General routines
     calbec       :      0.15s CPU      0.17s WALL (    5676 calls)
     fft          :      0.01s CPU      0.02s WALL (     327 calls)
     ffts         :      0.00s CPU      0.00s WALL (      40 calls)
     fftw         :      2.98s CPU      3.12s WALL (  113156 calls)
     interpolate  :      0.00s CPU      0.00s WALL (      40 calls)
     davcio       :      0.00s CPU      0.00s WALL (     144 calls)
 
     Parallel routines
     fft_scatter  :      1.85s CPU      1.98s WALL (  113523 calls)
 
     PWSCF        :     5.80s CPU         6.26s WALL

 
   This run was terminated on:  18:54: 4  10Mar2017            

=------------------------------------------------------------------------------=
   JOB DONE.
=------------------------------------------------------------------------------=
