  python dir          : /home/vossj/suncat/lib/python2.7/site-packages/espresso
  espresso dir        : /home/vossj/suncat/esdld/espresso-dynpy-beef/bin
  pseudo dir          : /home/vossj/suncat/esdld/psp
  ase-espresso py git : ffa2778-git


--------------------------------------------------------------------------
WARNING: It appears that your OpenFabrics subsystem is configured to only
allow registering part of your physical memory.  This can cause MPI jobs to
run with erratic performance, hang, and/or crash.

This may be caused by your OpenFabrics vendor limiting the amount of
physical memory that can be registered.  You should investigate the
relevant Linux kernel module parameters that control how much physical
memory can be registered, and increase them to allow registering all
physical memory on your machine.

See this Open MPI FAQ item for more information on these Linux kernel module
parameters:

    http://www.open-mpi.org/faq/?category=openfabrics#ib-locked-pages

  Local host:              sherlock-ln02
  Registerable memory:     16384 MiB
  Total memory:            65490 MiB

Your MPI job will continue, but may be behave poorly and/or hang.
--------------------------------------------------------------------------

     Program PWSCF v.5.1rc2 (svn rev. ) starts on  7Mar2017 at 12: 5:50 

     This program is part of the open-source Quantum ESPRESSO suite
     for quantum simulation of materials; please cite
         "P. Giannozzi et al., J. Phys.:Condens. Matter 21 395502 (2009);
          URL http://www.quantum-espresso.org", 
     in publications or presentations arising from this work. More details at
     http://www.quantum-espresso.org/quote

     Parallel version (MPI), running on     1 processors
     Reading input from pw.inp
     Message from routine read_cards :
     DEPRECATED: no units specified in CELL_PARAMETERS card

     Current dimensions of program PWSCF are:
     Max number of different atomic species (ntypx) = 10
     Max number of k-points (npk) =  40000
     Max angular momentum in pseudopotentials (lmaxx) =  3

     IMPORTANT: XC functional enforced from input :
     Exchange-correlation      = RPBE ( 1  4 28  4 0)
     Any further DFT definition will be discarded
     Please, verify this is what you really want

               file Ni.UPF: wavefunction(s)  3D renormalized

     Subspace diagonalization in iterative solution of the eigenvalue problem:
     a serial algorithm will be used

 
     G-vector sticks info
     --------------------
     sticks:   dense  smooth     PW     G-vecs:    dense   smooth      PW
     Sum         349     139     55                 4111     1037     259
 
     Generating pointlists ...
     new r_m :   0.4125 (alat units)  0.7795 (a.u.) for type    1


     bravais-lattice index     =            0
     lattice parameter (alat)  =       1.8897  a.u.
     unit-cell volume          =      26.3607 (a.u.)^3
     number of atoms/cell      =            1
     number of atomic types    =            1
     number of electrons       =        10.00
     number of Kohn-Sham states=          105
     kinetic-energy cutoff     =      44.0992  Ry
     charge density cutoff     =     440.9919  Ry
     convergence threshold     =      7.3E-07
     mixing beta               =       0.1000
     number of iterations used =           10  plain     mixing
     Exchange-correlation      = RPBE ( 1  4 28  4 0)
     nstep                     =           50


     celldm(1)=   1.889726  celldm(2)=   0.000000  celldm(3)=   0.000000
     celldm(4)=   0.000000  celldm(5)=   0.000000  celldm(6)=   0.000000

     crystal axes: (cart. coord. in units of alat)
               a(1) = (   0.000000   1.250000   1.250000 )  
               a(2) = (   1.250000   0.000000   1.250000 )  
               a(3) = (   1.250000   1.250000   0.000000 )  

     reciprocal axes: (cart. coord. in units 2 pi/alat)
               b(1) = ( -0.400000  0.400000  0.400000 )  
               b(2) = (  0.400000 -0.400000  0.400000 )  
               b(3) = (  0.400000  0.400000 -0.400000 )  


     PseudoPot. # 1 for Ni read from file:
     /home/vossj/suncat/esdld/psp/Ni.UPF
     MD5 check sum: 8b2449ee0060d9c33484ccd47bb60870
     Pseudo is Ultrasoft + core correction, Zval = 10.0
     Generated using "atomic" code by A. Dal Corso  v.5.0.2 svn rev. 9415
     Using radial grid of 1195 points,  6 beta functions with: 
                l(1) =   0
                l(2) =   0
                l(3) =   1
                l(4) =   1
                l(5) =   2
                l(6) =   2
     Q(r) pseudized with 0 coefficients 


     atomic species   valence    mass     pseudopotential
        Ni1           10.00    58.69340     Ni( 1.00)

     Starting magnetic structure 
     atomic species   magnetization
        Ni1          0.300

     48 Sym. Ops., with inversion, found



   Cartesian axes

     site n.     atom                  positions (alat units)
         1           Ni1 tau(   1) = (   0.0000000   0.0000000   0.0000000  )

     number of k points=   144  Fermi-Dirac smearing, width (Ry)=  0.0073

     Number of k-points >= 100: set verbosity='high' to print them.

     Dense  grid:     4111 G-vectors     FFT dimensions: (  24,  24,  24)

     Smooth grid:     1037 G-vectors     FFT dimensions: (  15,  15,  15)

     Largest allocated arrays     est. size (Mb)     dimensions
        Kohn-Sham Wavefunctions         0.22 Mb     (     138,  105)
        NL pseudopotentials             0.04 Mb     (     138,   18)
        Each V/rho on FFT grid          0.42 Mb     (   13824,   2)
        Each G-vector array             0.03 Mb     (    4111)
        G-vector shells                 0.00 Mb     (      85)
     Largest temporary arrays     est. size (Mb)     dimensions
        Auxiliary wavefunctions         0.88 Mb     (     138,  420)
        Each subspace H/S matrix        2.69 Mb     (     420,  420)
        Each <psi_i|beta_j> matrix      0.03 Mb     (      18,  105)
        Arrays for rho mixing           2.11 Mb     (   13824,   10)

     Initial potential from superposition of free atoms

     starting charge    9.99975, renormalised to   10.00000
     Starting wfc are    9 randomized atomic wfcs +   96 random wfc

     total cpu time spent up to now is        3.5 secs

     Self-consistent Calculation

     iteration #  1     ecut=    44.10 Ry     beta=0.10
     Davidson diagonalization with overlap

 %%%%%%%%%%%%%%%%%%%%%%%%%%%%%%%%%%%%%%%%%%%%%%%%%%%%%%%%%%%%%%%%%%%%%%%%%%%%%%
     Error in routine diag_bands (1):
     too many bands, or too few plane waves
 %%%%%%%%%%%%%%%%%%%%%%%%%%%%%%%%%%%%%%%%%%%%%%%%%%%%%%%%%%%%%%%%%%%%%%%%%%%%%%

     stopping ...
--------------------------------------------------------------------------
MPI_ABORT was invoked on rank 0 in communicator MPI_COMM_WORLD 
with errorcode 1.

NOTE: invoking MPI_ABORT causes Open MPI to kill all MPI processes.
You may or may not see output from other processes, depending on
exactly when Open MPI kills them.
--------------------------------------------------------------------------
  python dir          : /home/vossj/suncat/lib/python2.7/site-packages/espresso
  espresso dir        : /home/vossj/suncat/esdld/espresso-dynpy-beef/bin
  pseudo dir          : /home/vossj/suncat/esdld/psp
  ase-espresso py git : ffa2778-git


--------------------------------------------------------------------------
WARNING: It appears that your OpenFabrics subsystem is configured to only
allow registering part of your physical memory.  This can cause MPI jobs to
run with erratic performance, hang, and/or crash.

This may be caused by your OpenFabrics vendor limiting the amount of
physical memory that can be registered.  You should investigate the
relevant Linux kernel module parameters that control how much physical
memory can be registered, and increase them to allow registering all
physical memory on your machine.

See this Open MPI FAQ item for more information on these Linux kernel module
parameters:

    http://www.open-mpi.org/faq/?category=openfabrics#ib-locked-pages

  Local host:              sherlock-ln02
  Registerable memory:     16384 MiB
  Total memory:            65490 MiB

Your MPI job will continue, but may be behave poorly and/or hang.
--------------------------------------------------------------------------

     Program PWSCF v.5.1rc2 (svn rev. ) starts on  7Mar2017 at 12:43:12 

     This program is part of the open-source Quantum ESPRESSO suite
     for quantum simulation of materials; please cite
         "P. Giannozzi et al., J. Phys.:Condens. Matter 21 395502 (2009);
          URL http://www.quantum-espresso.org", 
     in publications or presentations arising from this work. More details at
     http://www.quantum-espresso.org/quote

     Parallel version (MPI), running on     1 processors
     Reading input from pw.inp
     Message from routine read_cards :
     DEPRECATED: no units specified in CELL_PARAMETERS card

     Current dimensions of program PWSCF are:
     Max number of different atomic species (ntypx) = 10
     Max number of k-points (npk) =  40000
     Max angular momentum in pseudopotentials (lmaxx) =  3

     IMPORTANT: XC functional enforced from input :
     Exchange-correlation      = RPBE ( 1  4 28  4 0)
     Any further DFT definition will be discarded
     Please, verify this is what you really want

               file Ni.UPF: wavefunction(s)  3D renormalized

     Subspace diagonalization in iterative solution of the eigenvalue problem:
     a serial algorithm will be used

 
     G-vector sticks info
     --------------------
     sticks:   dense  smooth     PW     G-vecs:    dense   smooth      PW
     Sum         349     139     55                 4111     1037     259
 
     Generating pointlists ...
     new r_m :   0.4125 (alat units)  0.7795 (a.u.) for type    1


     bravais-lattice index     =            0
     lattice parameter (alat)  =       1.8897  a.u.
     unit-cell volume          =      26.3607 (a.u.)^3
     number of atoms/cell      =            1
     number of atomic types    =            1
     number of electrons       =        10.00
     number of Kohn-Sham states=           15
     kinetic-energy cutoff     =      44.0992  Ry
     charge density cutoff     =     440.9919  Ry
     convergence threshold     =      7.3E-07
     mixing beta               =       0.1000
     number of iterations used =           10  plain     mixing
     Exchange-correlation      = RPBE ( 1  4 28  4 0)
     nstep                     =           50


     celldm(1)=   1.889726  celldm(2)=   0.000000  celldm(3)=   0.000000
     celldm(4)=   0.000000  celldm(5)=   0.000000  celldm(6)=   0.000000

     crystal axes: (cart. coord. in units of alat)
               a(1) = (   0.000000   1.250000   1.250000 )  
               a(2) = (   1.250000   0.000000   1.250000 )  
               a(3) = (   1.250000   1.250000   0.000000 )  

     reciprocal axes: (cart. coord. in units 2 pi/alat)
               b(1) = ( -0.400000  0.400000  0.400000 )  
               b(2) = (  0.400000 -0.400000  0.400000 )  
               b(3) = (  0.400000  0.400000 -0.400000 )  


     PseudoPot. # 1 for Ni read from file:
     /home/vossj/suncat/esdld/psp/Ni.UPF
     MD5 check sum: 8b2449ee0060d9c33484ccd47bb60870
     Pseudo is Ultrasoft + core correction, Zval = 10.0
     Generated using "atomic" code by A. Dal Corso  v.5.0.2 svn rev. 9415
     Using radial grid of 1195 points,  6 beta functions with: 
                l(1) =   0
                l(2) =   0
                l(3) =   1
                l(4) =   1
                l(5) =   2
                l(6) =   2
     Q(r) pseudized with 0 coefficients 


     atomic species   valence    mass     pseudopotential
        Ni1           10.00    58.69340     Ni( 1.00)

     Starting magnetic structure 
     atomic species   magnetization
        Ni1          0.300

     48 Sym. Ops., with inversion, found



   Cartesian axes

     site n.     atom                  positions (alat units)
         1           Ni1 tau(   1) = (   0.0000000   0.0000000   0.0000000  )

     number of k points=   144  Fermi-Dirac smearing, width (Ry)=  0.0073

     Number of k-points >= 100: set verbosity='high' to print them.

     Dense  grid:     4111 G-vectors     FFT dimensions: (  24,  24,  24)

     Smooth grid:     1037 G-vectors     FFT dimensions: (  15,  15,  15)

     Largest allocated arrays     est. size (Mb)     dimensions
        Kohn-Sham Wavefunctions         0.03 Mb     (     138,   15)
        NL pseudopotentials             0.04 Mb     (     138,   18)
        Each V/rho on FFT grid          0.42 Mb     (   13824,   2)
        Each G-vector array             0.03 Mb     (    4111)
        G-vector shells                 0.00 Mb     (      85)
     Largest temporary arrays     est. size (Mb)     dimensions
        Auxiliary wavefunctions         0.13 Mb     (     138,   60)
        Each subspace H/S matrix        0.05 Mb     (      60,   60)
        Each <psi_i|beta_j> matrix      0.00 Mb     (      18,   15)
        Arrays for rho mixing           2.11 Mb     (   13824,   10)

     Initial potential from superposition of free atoms

     starting charge    9.99975, renormalised to   10.00000
     Starting wfc are    9 randomized atomic wfcs +    6 random wfc

     total cpu time spent up to now is        0.8 secs

     Self-consistent Calculation

     iteration #  1     ecut=    44.10 Ry     beta=0.10
     Davidson diagonalization with overlap
     ethr =  1.00E-02,  avg # of iterations =  4.6
 
     Magnetic moment per site:
     atom:    1    charge:    4.1235    magn:    1.1357    constr:    0.0000

     total cpu time spent up to now is        2.3 secs

     total energy              =     -99.06828855 Ry
     Harris-Foulkes estimate   =     -99.06257034 Ry
     estimated scf accuracy    <       0.23997393 Ry

     total magnetization       =     0.50 Bohr mag/cell
     absolute magnetization    =     0.50 Bohr mag/cell

     iteration #  2     ecut=    44.10 Ry     beta=0.10
     Davidson diagonalization with overlap
     ethr =  2.40E-03,  avg # of iterations =  1.0
 
     Magnetic moment per site:
     atom:    1    charge:    4.2497    magn:    0.6610    constr:    0.0000

     total cpu time spent up to now is        3.0 secs

     total energy              =     -99.10326059 Ry
     Harris-Foulkes estimate   =     -99.06934488 Ry
     estimated scf accuracy    <       0.17671248 Ry

     total magnetization       =     0.50 Bohr mag/cell
     absolute magnetization    =     0.50 Bohr mag/cell

     iteration #  3     ecut=    44.10 Ry     beta=0.10
     Davidson diagonalization with overlap
     ethr =  1.77E-03,  avg # of iterations =  1.0
 
     Magnetic moment per site:
     atom:    1    charge:    4.2474    magn:    0.0750    constr:    0.0000

     total cpu time spent up to now is        3.7 secs

     total energy              =     -99.13503980 Ry
     Harris-Foulkes estimate   =     -99.12269966 Ry
     estimated scf accuracy    <       0.03517529 Ry

     total magnetization       =     0.42 Bohr mag/cell
     absolute magnetization    =     0.42 Bohr mag/cell

     iteration #  4     ecut=    44.10 Ry     beta=0.10
     Davidson diagonalization with overlap
     ethr =  3.52E-04,  avg # of iterations =  1.1
 
     Magnetic moment per site:
     atom:    1    charge:    4.2156    magn:    0.0665    constr:    0.0000

     total cpu time spent up to now is        4.4 secs

     total energy              =     -99.14164458 Ry
     Harris-Foulkes estimate   =     -99.14284099 Ry
     estimated scf accuracy    <       0.00282681 Ry

     total magnetization       =     0.05 Bohr mag/cell
     absolute magnetization    =     0.09 Bohr mag/cell

     iteration #  5     ecut=    44.10 Ry     beta=0.10
     Davidson diagonalization with overlap
     ethr =  2.83E-05,  avg # of iterations =  1.7
 
     Magnetic moment per site:
     atom:    1    charge:    4.2242    magn:    0.1438    constr:    0.0000

     total cpu time spent up to now is        5.1 secs

     total energy              =     -99.14261429 Ry
     Harris-Foulkes estimate   =     -99.14287873 Ry
     estimated scf accuracy    <       0.00170387 Ry

     total magnetization       =     0.04 Bohr mag/cell
     absolute magnetization    =     0.08 Bohr mag/cell

     iteration #  6     ecut=    44.10 Ry     beta=0.10
     Davidson diagonalization with overlap
     ethr =  1.70E-05,  avg # of iterations =  1.0
 
     Magnetic moment per site:
     atom:    1    charge:    4.2245    magn:    0.1043    constr:    0.0000

     total cpu time spent up to now is        5.8 secs

     total energy              =     -99.14331581 Ry
     Harris-Foulkes estimate   =     -99.14315910 Ry
     estimated scf accuracy    <       0.00049191 Ry

     total magnetization       =     0.13 Bohr mag/cell
     absolute magnetization    =     0.14 Bohr mag/cell

     iteration #  7     ecut=    44.10 Ry     beta=0.10
     Davidson diagonalization with overlap
     ethr =  4.92E-06,  avg # of iterations =  1.0
 
     Magnetic moment per site:
     atom:    1    charge:    4.2247    magn:    0.0889    constr:    0.0000

     total cpu time spent up to now is        6.5 secs

     total energy              =     -99.14342133 Ry
     Harris-Foulkes estimate   =     -99.14336797 Ry
     estimated scf accuracy    <       0.00022791 Ry

     total magnetization       =     0.10 Bohr mag/cell
     absolute magnetization    =     0.11 Bohr mag/cell

     iteration #  8     ecut=    44.10 Ry     beta=0.10
     Davidson diagonalization with overlap
     ethr =  2.28E-06,  avg # of iterations =  1.0
 
     Magnetic moment per site:
     atom:    1    charge:    4.2247    magn:    0.0538    constr:    0.0000

     total cpu time spent up to now is        7.2 secs

     total energy              =     -99.14348642 Ry
     Harris-Foulkes estimate   =     -99.14342996 Ry
     estimated scf accuracy    <       0.00015783 Ry

     total magnetization       =     0.08 Bohr mag/cell
     absolute magnetization    =     0.09 Bohr mag/cell

     iteration #  9     ecut=    44.10 Ry     beta=0.10
     Davidson diagonalization with overlap
     ethr =  1.58E-06,  avg # of iterations =  1.0
 
     Magnetic moment per site:
     atom:    1    charge:    4.2245    magn:    0.0106    constr:    0.0000

     total cpu time spent up to now is        7.8 secs

     total energy              =     -99.14351569 Ry
     Harris-Foulkes estimate   =     -99.14353315 Ry
     estimated scf accuracy    <       0.00005516 Ry

     total magnetization       =     0.05 Bohr mag/cell
     absolute magnetization    =     0.06 Bohr mag/cell

     iteration # 10     ecut=    44.10 Ry     beta=0.10
     Davidson diagonalization with overlap
     ethr =  5.52E-07,  avg # of iterations =  1.0
 
     Magnetic moment per site:
     atom:    1    charge:    4.2245    magn:    0.0099    constr:    0.0000

     total cpu time spent up to now is        8.5 secs

     total energy              =     -99.14358921 Ry
     Harris-Foulkes estimate   =     -99.14358893 Ry
     estimated scf accuracy    <       0.00000234 Ry

     total magnetization       =     0.01 Bohr mag/cell
     absolute magnetization    =     0.01 Bohr mag/cell

     iteration # 11     ecut=    44.10 Ry     beta=0.10
     Davidson diagonalization with overlap
     ethr =  2.34E-08,  avg # of iterations =  1.6
 
     Magnetic moment per site:
     atom:    1    charge:    4.2245    magn:    0.0100    constr:    0.0000

     total cpu time spent up to now is        9.2 secs

     total energy              =     -99.14358934 Ry
     Harris-Foulkes estimate   =     -99.14358933 Ry
     estimated scf accuracy    <       0.00000202 Ry

     total magnetization       =     0.01 Bohr mag/cell
     absolute magnetization    =     0.01 Bohr mag/cell

     iteration # 12     ecut=    44.10 Ry     beta=0.10
     Davidson diagonalization with overlap
     ethr =  2.02E-08,  avg # of iterations =  1.0
 
     Magnetic moment per site:
     atom:    1    charge:    4.2247    magn:    0.0030    constr:    0.0000

     total cpu time spent up to now is        9.9 secs

     total energy              =     -99.14358908 Ry
     Harris-Foulkes estimate   =     -99.14358934 Ry
     estimated scf accuracy    <       0.00000205 Ry

     total magnetization       =     0.01 Bohr mag/cell
     absolute magnetization    =     0.01 Bohr mag/cell

     iteration # 13     ecut=    44.10 Ry     beta=0.10
     Davidson diagonalization with overlap
     ethr =  2.02E-08,  avg # of iterations =  1.0
 
     Magnetic moment per site:
     atom:    1    charge:    4.2247    magn:    0.0020    constr:    0.0000

     total cpu time spent up to now is       10.6 secs

     End of self-consistent calculation

     Number of k-points >= 100: set verbosity='high' to print the bands.

     the Fermi energy is    46.8213 ev

!    total energy              =     -99.14359124 Ry
     Harris-Foulkes estimate   =     -99.14359109 Ry
     estimated scf accuracy    <       0.00000017 Ry

     The total energy is the sum of the following terms:

     one-electron contribution =      30.33800371 Ry
     hartree contribution      =      11.27714942 Ry
     xc contribution           =     -43.70832612 Ry
     ewald contribution        =     -97.04818099 Ry
     smearing contrib. (-TS)   =      -0.00223725 Ry

     total magnetization       =     0.00 Bohr mag/cell
     absolute magnetization    =     0.00 Bohr mag/cell

     convergence has been achieved in  13 iterations

     Forces acting on atoms (Ry/au):

     atom    1 type  1   force =     0.00000000    0.00000000    0.00000000

     Total force =     0.000000     Total SCF correction =     0.000000
 !ASE
  python dir          : /home/vossj/suncat/lib/python2.7/site-packages/espresso
  espresso dir        : /home/vossj/suncat/esdld/espresso-dynpy-beef/bin
  pseudo dir          : /home/vossj/suncat/esdld/psp
  ase-espresso py git : ffa2778-git



     Writing output data file calc.save
 
     init_run     :      3.89s CPU      0.48s WALL (       1 calls)
     electrons    :    148.33s CPU      9.85s WALL (       1 calls)
     forces       :      1.28s CPU      0.08s WALL (       1 calls)

     Called by init_run:
     wfcinit      :      3.63s CPU      0.23s WALL (       1 calls)
     potinit      :      0.02s CPU      0.02s WALL (       1 calls)

     Called by electrons:
     c_bands      :    117.25s CPU      7.79s WALL (      13 calls)
     sum_band     :     24.95s CPU      1.66s WALL (      13 calls)
     v_of_rho     :      3.58s CPU      0.25s WALL (      14 calls)
     newd         :      2.12s CPU      0.15s WALL (      14 calls)
     mix_rho      :      0.27s CPU      0.02s WALL (      13 calls)

     Called by c_bands:
     init_us_2    :      2.51s CPU      0.18s WALL (    4032 calls)
     cegterg      :    109.26s CPU      7.27s WALL (    1872 calls)

     Called by *egterg:
     h_psi        :     77.84s CPU      5.22s WALL (    4613 calls)
     s_psi        :      2.03s CPU      0.11s WALL (    4613 calls)
     g_psi        :      1.49s CPU      0.06s WALL (    2597 calls)
     cdiaghg      :     20.54s CPU      1.36s WALL (    4469 calls)

     Called by h_psi:
     add_vuspsi   :      1.30s CPU      0.12s WALL (    4613 calls)

     General routines
     calbec       :      5.46s CPU      0.24s WALL (    6629 calls)
     fft          :      0.96s CPU      0.07s WALL (     443 calls)
     ffts         :      0.03s CPU      0.00s WALL (      54 calls)
     fftw         :     70.35s CPU      4.79s WALL (  153832 calls)
     interpolate  :      0.16s CPU      0.01s WALL (      54 calls)
     davcio       :      0.00s CPU      0.00s WALL (     144 calls)
 
     Parallel routines
     fft_scatter  :      7.74s CPU      0.53s WALL (  154329 calls)
 
     PWSCF        :  2m37.21s CPU     0m10.95s WALL

 
   This run was terminated on:  12:43:22   7Mar2017            

=------------------------------------------------------------------------------=
   JOB DONE.
=------------------------------------------------------------------------------=
--------------------------------------------------------------------------
WARNING: It appears that your OpenFabrics subsystem is configured to only
allow registering part of your physical memory.  This can cause MPI jobs to
run with erratic performance, hang, and/or crash.

This may be caused by your OpenFabrics vendor limiting the amount of
physical memory that can be registered.  You should investigate the
relevant Linux kernel module parameters that control how much physical
memory can be registered, and increase them to allow registering all
physical memory on your machine.

See this Open MPI FAQ item for more information on these Linux kernel module
parameters:

    http://www.open-mpi.org/faq/?category=openfabrics#ib-locked-pages

  Local host:              sherlock-ln02
  Registerable memory:     16384 MiB
  Total memory:            65490 MiB

Your MPI job will continue, but may be behave poorly and/or hang.
--------------------------------------------------------------------------

     Program PWSCF v.5.1rc2 (svn rev. ) starts on  7Mar2017 at 12:43:23 

     This program is part of the open-source Quantum ESPRESSO suite
     for quantum simulation of materials; please cite
         "P. Giannozzi et al., J. Phys.:Condens. Matter 21 395502 (2009);
          URL http://www.quantum-espresso.org", 
     in publications or presentations arising from this work. More details at
     http://www.quantum-espresso.org/quote

     Parallel version (MPI), running on     1 processors
     Reading input from pw.inp
     Message from routine read_cards :
     DEPRECATED: no units specified in CELL_PARAMETERS card

     Current dimensions of program PWSCF are:
     Max number of different atomic species (ntypx) = 10
     Max number of k-points (npk) =  40000
     Max angular momentum in pseudopotentials (lmaxx) =  3

     IMPORTANT: XC functional enforced from input :
     Exchange-correlation      = RPBE ( 1  4 28  4 0)
     Any further DFT definition will be discarded
     Please, verify this is what you really want

               file Ni.UPF: wavefunction(s)  3D renormalized

     Subspace diagonalization in iterative solution of the eigenvalue problem:
     a serial algorithm will be used

 
     G-vector sticks info
     --------------------
     sticks:   dense  smooth     PW     G-vecs:    dense   smooth      PW
     Sum         367     151     55                 4693     1243     283
 
     Generating pointlists ...
     new r_m :   0.4125 (alat units)  0.7795 (a.u.) for type    1


     bravais-lattice index     =            0
     lattice parameter (alat)  =       1.8897  a.u.
     unit-cell volume          =      30.5158 (a.u.)^3
     number of atoms/cell      =            1
     number of atomic types    =            1
     number of electrons       =        10.00
     number of Kohn-Sham states=           15
     kinetic-energy cutoff     =      44.0992  Ry
     charge density cutoff     =     440.9919  Ry
     convergence threshold     =      7.3E-07
     mixing beta               =       0.1000
     number of iterations used =           10  plain     mixing
     Exchange-correlation      = RPBE ( 1  4 28  4 0)
     nstep                     =           50


     celldm(1)=   1.889726  celldm(2)=   0.000000  celldm(3)=   0.000000
     celldm(4)=   0.000000  celldm(5)=   0.000000  celldm(6)=   0.000000

     crystal axes: (cart. coord. in units of alat)
               a(1) = (   0.000000   1.312500   1.312500 )  
               a(2) = (   1.312500   0.000000   1.312500 )  
               a(3) = (   1.312500   1.312500   0.000000 )  

     reciprocal axes: (cart. coord. in units 2 pi/alat)
               b(1) = ( -0.380952  0.380952  0.380952 )  
               b(2) = (  0.380952 -0.380952  0.380952 )  
               b(3) = (  0.380952  0.380952 -0.380952 )  


     PseudoPot. # 1 for Ni read from file:
     /home/vossj/suncat/esdld/psp/Ni.UPF
     MD5 check sum: 8b2449ee0060d9c33484ccd47bb60870
     Pseudo is Ultrasoft + core correction, Zval = 10.0
     Generated using "atomic" code by A. Dal Corso  v.5.0.2 svn rev. 9415
     Using radial grid of 1195 points,  6 beta functions with: 
                l(1) =   0
                l(2) =   0
                l(3) =   1
                l(4) =   1
                l(5) =   2
                l(6) =   2
     Q(r) pseudized with 0 coefficients 


     atomic species   valence    mass     pseudopotential
        Ni1           10.00    58.69340     Ni( 1.00)

     Starting magnetic structure 
     atomic species   magnetization
        Ni1          0.300

     48 Sym. Ops., with inversion, found



   Cartesian axes

     site n.     atom                  positions (alat units)
         1           Ni1 tau(   1) = (   0.0000000   0.0000000   0.0000000  )

     number of k points=   144  Fermi-Dirac smearing, width (Ry)=  0.0073

     Number of k-points >= 100: set verbosity='high' to print them.

     Dense  grid:     4693 G-vectors     FFT dimensions: (  24,  24,  24)

     Smooth grid:     1243 G-vectors     FFT dimensions: (  15,  15,  15)

     Largest allocated arrays     est. size (Mb)     dimensions
        Kohn-Sham Wavefunctions         0.04 Mb     (     169,   15)
        NL pseudopotentials             0.05 Mb     (     169,   18)
        Each V/rho on FFT grid          0.42 Mb     (   13824,   2)
        Each G-vector array             0.04 Mb     (    4693)
        G-vector shells                 0.00 Mb     (      93)
     Largest temporary arrays     est. size (Mb)     dimensions
        Auxiliary wavefunctions         0.15 Mb     (     169,   60)
        Each subspace H/S matrix        0.05 Mb     (      60,   60)
        Each <psi_i|beta_j> matrix      0.00 Mb     (      18,   15)
        Arrays for rho mixing           2.11 Mb     (   13824,   10)

     Initial potential from superposition of free atoms

     starting charge    9.99975, renormalised to   10.00000
     Starting wfc are    9 randomized atomic wfcs +    6 random wfc

     total cpu time spent up to now is        0.7 secs

     Self-consistent Calculation

     iteration #  1     ecut=    44.10 Ry     beta=0.10
     Davidson diagonalization with overlap
     ethr =  1.00E-02,  avg # of iterations =  4.6
 
     Magnetic moment per site:
     atom:    1    charge:    4.0763    magn:    1.1338    constr:    0.0000

     total cpu time spent up to now is        2.4 secs

     total energy              =     -99.60635742 Ry
     Harris-Foulkes estimate   =     -99.59331156 Ry
     estimated scf accuracy    <       0.15679977 Ry

     total magnetization       =     0.63 Bohr mag/cell
     absolute magnetization    =     0.63 Bohr mag/cell

     iteration #  2     ecut=    44.10 Ry     beta=0.10
     Davidson diagonalization with overlap
     ethr =  1.57E-03,  avg # of iterations =  1.0
 
     Magnetic moment per site:
     atom:    1    charge:    4.1654    magn:    0.5855    constr:    0.0000

     total cpu time spent up to now is        3.1 secs

     total energy              =     -99.66483810 Ry
     Harris-Foulkes estimate   =     -99.60687244 Ry
     estimated scf accuracy    <       0.12652338 Ry

     total magnetization       =     0.59 Bohr mag/cell
     absolute magnetization    =     0.59 Bohr mag/cell

     iteration #  3     ecut=    44.10 Ry     beta=0.10
     Davidson diagonalization with overlap
     ethr =  1.27E-03,  avg # of iterations =  1.0
 
     Magnetic moment per site:
     atom:    1    charge:    4.1318    magn:    0.4523    constr:    0.0000

     total cpu time spent up to now is        3.7 secs

     total energy              =     -99.68005178 Ry
     Harris-Foulkes estimate   =     -99.67805272 Ry
     estimated scf accuracy    <       0.02485704 Ry

     total magnetization       =     0.45 Bohr mag/cell
     absolute magnetization    =     0.46 Bohr mag/cell

     iteration #  4     ecut=    44.10 Ry     beta=0.10
     Davidson diagonalization with overlap
     ethr =  2.49E-04,  avg # of iterations =  1.0
 
     Magnetic moment per site:
     atom:    1    charge:    4.1357    magn:    0.3034    constr:    0.0000

     total cpu time spent up to now is        4.4 secs

     total energy              =     -99.68621176 Ry
     Harris-Foulkes estimate   =     -99.68239383 Ry
     estimated scf accuracy    <       0.00735191 Ry

     total magnetization       =     0.38 Bohr mag/cell
     absolute magnetization    =     0.40 Bohr mag/cell

     iteration #  5     ecut=    44.10 Ry     beta=0.10
     Davidson diagonalization with overlap
     ethr =  7.35E-05,  avg # of iterations =  1.0
 
     Magnetic moment per site:
     atom:    1    charge:    4.1361    magn:    0.3147    constr:    0.0000

     total cpu time spent up to now is        5.1 secs

     total energy              =     -99.68664532 Ry
     Harris-Foulkes estimate   =     -99.68682709 Ry
     estimated scf accuracy    <       0.00224660 Ry

     total magnetization       =     0.27 Bohr mag/cell
     absolute magnetization    =     0.30 Bohr mag/cell

     iteration #  6     ecut=    44.10 Ry     beta=0.10
     Davidson diagonalization with overlap
     ethr =  2.25E-05,  avg # of iterations =  1.0
 
     Magnetic moment per site:
     atom:    1    charge:    4.1354    magn:    0.2286    constr:    0.0000

     total cpu time spent up to now is        5.8 secs

     total energy              =     -99.68749045 Ry
     Harris-Foulkes estimate   =     -99.68665162 Ry
     estimated scf accuracy    <       0.00247890 Ry

     total magnetization       =     0.28 Bohr mag/cell
     absolute magnetization    =     0.31 Bohr mag/cell

     iteration #  7     ecut=    44.10 Ry     beta=0.10
     Davidson diagonalization with overlap
     ethr =  2.25E-05,  avg # of iterations =  1.0
 
     Magnetic moment per site:
     atom:    1    charge:    4.1355    magn:    0.2238    constr:    0.0000

     total cpu time spent up to now is        6.5 secs

     total energy              =     -99.68776075 Ry
     Harris-Foulkes estimate   =     -99.68771504 Ry
     estimated scf accuracy    <       0.00106374 Ry

     total magnetization       =     0.22 Bohr mag/cell
     absolute magnetization    =     0.24 Bohr mag/cell

     iteration #  8     ecut=    44.10 Ry     beta=0.10
     Davidson diagonalization with overlap
     ethr =  1.06E-05,  avg # of iterations =  1.0
 
     Magnetic moment per site:
     atom:    1    charge:    4.1356    magn:    0.1461    constr:    0.0000

     total cpu time spent up to now is        7.2 secs

     total energy              =     -99.68812595 Ry
     Harris-Foulkes estimate   =     -99.68776161 Ry
     estimated scf accuracy    <       0.00100509 Ry

     total magnetization       =     0.21 Bohr mag/cell
     absolute magnetization    =     0.23 Bohr mag/cell

     iteration #  9     ecut=    44.10 Ry     beta=0.10
     Davidson diagonalization with overlap
     ethr =  1.01E-05,  avg # of iterations =  1.0
 
     Magnetic moment per site:
     atom:    1    charge:    4.1353    magn:    0.0297    constr:    0.0000

     total cpu time spent up to now is        7.9 secs

     total energy              =     -99.68814571 Ry
     Harris-Foulkes estimate   =     -99.68833235 Ry
     estimated scf accuracy    <       0.00033754 Ry

     total magnetization       =     0.15 Bohr mag/cell
     absolute magnetization    =     0.16 Bohr mag/cell

     iteration # 10     ecut=    44.10 Ry     beta=0.10
     Davidson diagonalization with overlap
     ethr =  3.38E-06,  avg # of iterations =  1.0
 
     Magnetic moment per site:
     atom:    1    charge:    4.1353    magn:    0.0249    constr:    0.0000

     total cpu time spent up to now is        8.6 secs

     total energy              =     -99.68868952 Ry
     Harris-Foulkes estimate   =     -99.68868601 Ry
     estimated scf accuracy    <       0.00001083 Ry

     total magnetization       =     0.03 Bohr mag/cell
     absolute magnetization    =     0.04 Bohr mag/cell

     iteration # 11     ecut=    44.10 Ry     beta=0.10
     Davidson diagonalization with overlap
     ethr =  1.08E-07,  avg # of iterations =  1.7
 
     Magnetic moment per site:
     atom:    1    charge:    4.1352    magn:    0.0245    constr:    0.0000

     total cpu time spent up to now is        9.4 secs

     total energy              =     -99.68869129 Ry
     Harris-Foulkes estimate   =     -99.68869105 Ry
     estimated scf accuracy    <       0.00000769 Ry

     total magnetization       =     0.03 Bohr mag/cell
     absolute magnetization    =     0.03 Bohr mag/cell

     iteration # 12     ecut=    44.10 Ry     beta=0.10
     Davidson diagonalization with overlap
     ethr =  7.69E-08,  avg # of iterations =  1.0
 
     Magnetic moment per site:
     atom:    1    charge:    4.1353    magn:    0.0199    constr:    0.0000

     total cpu time spent up to now is       10.1 secs

     total energy              =     -99.68869363 Ry
     Harris-Foulkes estimate   =     -99.68869130 Ry
     estimated scf accuracy    <       0.00000684 Ry

     total magnetization       =     0.03 Bohr mag/cell
     absolute magnetization    =     0.03 Bohr mag/cell

     iteration # 13     ecut=    44.10 Ry     beta=0.10
     Davidson diagonalization with overlap
     ethr =  6.84E-08,  avg # of iterations =  1.0
 
     Magnetic moment per site:
     atom:    1    charge:    4.1353    magn:    0.0204    constr:    0.0000

     total cpu time spent up to now is       10.8 secs

     total energy              =     -99.68869432 Ry
     Harris-Foulkes estimate   =     -99.68869460 Ry
     estimated scf accuracy    <       0.00000426 Ry

     total magnetization       =     0.02 Bohr mag/cell
     absolute magnetization    =     0.02 Bohr mag/cell

     iteration # 14     ecut=    44.10 Ry     beta=0.10
     Davidson diagonalization with overlap
     ethr =  4.26E-08,  avg # of iterations =  1.0
 
     Magnetic moment per site:
     atom:    1    charge:    4.1354    magn:    0.0076    constr:    0.0000

     total cpu time spent up to now is       11.5 secs

     total energy              =     -99.68869264 Ry
     Harris-Foulkes estimate   =     -99.68869433 Ry
     estimated scf accuracy    <       0.00000453 Ry

     total magnetization       =     0.02 Bohr mag/cell
     absolute magnetization    =     0.02 Bohr mag/cell

     iteration # 15     ecut=    44.10 Ry     beta=0.10
     Davidson diagonalization with overlap
     ethr =  4.26E-08,  avg # of iterations =  1.0
 
     Magnetic moment per site:
     atom:    1    charge:    4.1354    magn:    0.0057    constr:    0.0000

     total cpu time spent up to now is       12.2 secs

     End of self-consistent calculation

     Number of k-points >= 100: set verbosity='high' to print the bands.

     the Fermi energy is    39.8054 ev

!    total energy              =     -99.68870047 Ry
     Harris-Foulkes estimate   =     -99.68870016 Ry
     estimated scf accuracy    <       0.00000063 Ry

     The total energy is the sum of the following terms:

     one-electron contribution =      23.79453165 Ry
     hartree contribution      =      12.17496162 Ry
     xc contribution           =     -43.22883804 Ry
     ewald contribution        =     -92.42683904 Ry
     smearing contrib. (-TS)   =      -0.00251667 Ry

     total magnetization       =     0.01 Bohr mag/cell
     absolute magnetization    =     0.01 Bohr mag/cell

     convergence has been achieved in  15 iterations

     Forces acting on atoms (Ry/au):

     atom    1 type  1   force =     0.00000000    0.00000000    0.00000000

     Total force =     0.000000     Total SCF correction =     0.000000
 !ASE
  python dir          : /home/vossj/suncat/lib/python2.7/site-packages/espresso
  espresso dir        : /home/vossj/suncat/esdld/espresso-dynpy-beef/bin
  pseudo dir          : /home/vossj/suncat/esdld/psp
  ase-espresso py git : ffa2778-git



     Writing output data file calc.save
 
     init_run     :      3.99s CPU      0.48s WALL (       1 calls)
     electrons    :    171.60s CPU     11.45s WALL (       1 calls)
     forces       :      1.34s CPU      0.09s WALL (       1 calls)

     Called by init_run:
     wfcinit      :      3.73s CPU      0.24s WALL (       1 calls)
     potinit      :      0.02s CPU      0.02s WALL (       1 calls)

     Called by electrons:
     c_bands      :    134.67s CPU      9.00s WALL (      15 calls)
     sum_band     :     29.67s CPU      1.97s WALL (      15 calls)
     v_of_rho     :      4.05s CPU      0.29s WALL (      16 calls)
     newd         :      2.75s CPU      0.19s WALL (      16 calls)
     mix_rho      :      0.30s CPU      0.02s WALL (      15 calls)

     Called by c_bands:
     init_us_2    :      3.25s CPU      0.23s WALL (    4608 calls)
     cegterg      :    124.49s CPU      8.32s WALL (    2160 calls)

     Called by *egterg:
     h_psi        :     89.39s CPU      6.02s WALL (    5084 calls)
     s_psi        :      2.29s CPU      0.13s WALL (    5084 calls)
     g_psi        :      1.75s CPU      0.07s WALL (    2780 calls)
     cdiaghg      :     21.71s CPU      1.44s WALL (    4940 calls)

     Called by h_psi:
     add_vuspsi   :      1.67s CPU      0.15s WALL (    5084 calls)

     General routines
     calbec       :      6.14s CPU      0.27s WALL (    7388 calls)
     fft          :      1.07s CPU      0.08s WALL (     505 calls)
     ffts         :      0.03s CPU      0.00s WALL (      62 calls)
     fftw         :     80.99s CPU      5.52s WALL (  175036 calls)
     interpolate  :      0.18s CPU      0.01s WALL (      62 calls)
     davcio       :      0.00s CPU      0.00s WALL (     144 calls)
 
     Parallel routines
     fft_scatter  :      8.72s CPU      0.62s WALL (  175603 calls)
 
     PWSCF        :  3m 0.40s CPU     0m12.55s WALL

 
   This run was terminated on:  12:43:35   7Mar2017            

=------------------------------------------------------------------------------=
   JOB DONE.
=------------------------------------------------------------------------------=
--------------------------------------------------------------------------
WARNING: It appears that your OpenFabrics subsystem is configured to only
allow registering part of your physical memory.  This can cause MPI jobs to
run with erratic performance, hang, and/or crash.

This may be caused by your OpenFabrics vendor limiting the amount of
physical memory that can be registered.  You should investigate the
relevant Linux kernel module parameters that control how much physical
memory can be registered, and increase them to allow registering all
physical memory on your machine.

See this Open MPI FAQ item for more information on these Linux kernel module
parameters:

    http://www.open-mpi.org/faq/?category=openfabrics#ib-locked-pages

  Local host:              sherlock-ln02
  Registerable memory:     16384 MiB
  Total memory:            65490 MiB

Your MPI job will continue, but may be behave poorly and/or hang.
--------------------------------------------------------------------------

     Program PWSCF v.5.1rc2 (svn rev. ) starts on  7Mar2017 at 12:43:36 

     This program is part of the open-source Quantum ESPRESSO suite
     for quantum simulation of materials; please cite
         "P. Giannozzi et al., J. Phys.:Condens. Matter 21 395502 (2009);
          URL http://www.quantum-espresso.org", 
     in publications or presentations arising from this work. More details at
     http://www.quantum-espresso.org/quote

     Parallel version (MPI), running on     1 processors
     Reading input from pw.inp
     Message from routine read_cards :
     DEPRECATED: no units specified in CELL_PARAMETERS card

     Current dimensions of program PWSCF are:
     Max number of different atomic species (ntypx) = 10
     Max number of k-points (npk) =  40000
     Max angular momentum in pseudopotentials (lmaxx) =  3

     IMPORTANT: XC functional enforced from input :
     Exchange-correlation      = RPBE ( 1  4 28  4 0)
     Any further DFT definition will be discarded
     Please, verify this is what you really want

               file Ni.UPF: wavefunction(s)  3D renormalized

     Subspace diagonalization in iterative solution of the eigenvalue problem:
     a serial algorithm will be used

 
     G-vector sticks info
     --------------------
     sticks:   dense  smooth     PW     G-vecs:    dense   smooth      PW
     Sum         421     163     61                 5577     1411     331
 
     Generating pointlists ...
     new r_m :   0.4125 (alat units)  0.7795 (a.u.) for type    1


     bravais-lattice index     =            0
     lattice parameter (alat)  =       1.8897  a.u.
     unit-cell volume          =      35.0861 (a.u.)^3
     number of atoms/cell      =            1
     number of atomic types    =            1
     number of electrons       =        10.00
     number of Kohn-Sham states=           15
     kinetic-energy cutoff     =      44.0992  Ry
     charge density cutoff     =     440.9919  Ry
     convergence threshold     =      7.3E-07
     mixing beta               =       0.1000
     number of iterations used =           10  plain     mixing
     Exchange-correlation      = RPBE ( 1  4 28  4 0)
     nstep                     =           50


     celldm(1)=   1.889726  celldm(2)=   0.000000  celldm(3)=   0.000000
     celldm(4)=   0.000000  celldm(5)=   0.000000  celldm(6)=   0.000000

     crystal axes: (cart. coord. in units of alat)
               a(1) = (   0.000000   1.375000   1.375000 )  
               a(2) = (   1.375000   0.000000   1.375000 )  
               a(3) = (   1.375000   1.375000   0.000000 )  

     reciprocal axes: (cart. coord. in units 2 pi/alat)
               b(1) = ( -0.363636  0.363636  0.363636 )  
               b(2) = (  0.363636 -0.363636  0.363636 )  
               b(3) = (  0.363636  0.363636 -0.363636 )  


     PseudoPot. # 1 for Ni read from file:
     /home/vossj/suncat/esdld/psp/Ni.UPF
     MD5 check sum: 8b2449ee0060d9c33484ccd47bb60870
     Pseudo is Ultrasoft + core correction, Zval = 10.0
     Generated using "atomic" code by A. Dal Corso  v.5.0.2 svn rev. 9415
     Using radial grid of 1195 points,  6 beta functions with: 
                l(1) =   0
                l(2) =   0
                l(3) =   1
                l(4) =   1
                l(5) =   2
                l(6) =   2
     Q(r) pseudized with 0 coefficients 


     atomic species   valence    mass     pseudopotential
        Ni1           10.00    58.69340     Ni( 1.00)

     Starting magnetic structure 
     atomic species   magnetization
        Ni1          0.300

     48 Sym. Ops., with inversion, found



   Cartesian axes

     site n.     atom                  positions (alat units)
         1           Ni1 tau(   1) = (   0.0000000   0.0000000   0.0000000  )

     number of k points=   144  Fermi-Dirac smearing, width (Ry)=  0.0073

     Number of k-points >= 100: set verbosity='high' to print them.

     Dense  grid:     5577 G-vectors     FFT dimensions: (  25,  25,  25)

     Smooth grid:     1411 G-vectors     FFT dimensions: (  15,  15,  15)

     Largest allocated arrays     est. size (Mb)     dimensions
        Kohn-Sham Wavefunctions         0.04 Mb     (     190,   15)
        NL pseudopotentials             0.05 Mb     (     190,   18)
        Each V/rho on FFT grid          0.48 Mb     (   15625,   2)
        Each G-vector array             0.04 Mb     (    5577)
        G-vector shells                 0.00 Mb     (     103)
     Largest temporary arrays     est. size (Mb)     dimensions
        Auxiliary wavefunctions         0.17 Mb     (     190,   60)
        Each subspace H/S matrix        0.05 Mb     (      60,   60)
        Each <psi_i|beta_j> matrix      0.00 Mb     (      18,   15)
        Arrays for rho mixing           2.38 Mb     (   15625,   10)

     Initial potential from superposition of free atoms

     starting charge    9.99975, renormalised to   10.00000
     Starting wfc are    9 randomized atomic wfcs +    6 random wfc

     total cpu time spent up to now is        0.7 secs

     Self-consistent Calculation

     iteration #  1     ecut=    44.10 Ry     beta=0.10
     Davidson diagonalization with overlap
     ethr =  1.00E-02,  avg # of iterations =  4.7
 
     Magnetic moment per site:
     atom:    1    charge:    4.0421    magn:    1.1329    constr:    0.0000

     total cpu time spent up to now is        2.4 secs

     total energy              =     -99.97487954 Ry
     Harris-Foulkes estimate   =     -99.96030557 Ry
     estimated scf accuracy    <       0.11615137 Ry

     total magnetization       =     0.75 Bohr mag/cell
     absolute magnetization    =     0.75 Bohr mag/cell

     iteration #  2     ecut=    44.10 Ry     beta=0.10
     Davidson diagonalization with overlap
     ethr =  1.16E-03,  avg # of iterations =  1.0
 
     Magnetic moment per site:
     atom:    1    charge:    4.1014    magn:    0.4551    constr:    0.0000

     total cpu time spent up to now is        3.1 secs

     total energy              =    -100.03879083 Ry
     Harris-Foulkes estimate   =     -99.97507498 Ry
     estimated scf accuracy    <       0.09562217 Ry

     total magnetization       =     0.73 Bohr mag/cell
     absolute magnetization    =     0.73 Bohr mag/cell

     iteration #  3     ecut=    44.10 Ry     beta=0.10
     Davidson diagonalization with overlap
     ethr =  9.56E-04,  avg # of iterations =  1.0
 
     Magnetic moment per site:
     atom:    1    charge:    4.0888    magn:    0.0635    constr:    0.0000

     total cpu time spent up to now is        3.9 secs

     total energy              =    -100.04402333 Ry
     Harris-Foulkes estimate   =    -100.05139043 Ry
     estimated scf accuracy    <       0.01059714 Ry

     total magnetization       =     0.43 Bohr mag/cell
     absolute magnetization    =     0.46 Bohr mag/cell

     iteration #  4     ecut=    44.10 Ry     beta=0.10
     Davidson diagonalization with overlap
     ethr =  1.06E-04,  avg # of iterations =  1.0
 
     Magnetic moment per site:
     atom:    1    charge:    4.0846    magn:    0.2502    constr:    0.0000

     total cpu time spent up to now is        4.6 secs

     total energy              =    -100.05116970 Ry
     Harris-Foulkes estimate   =    -100.05038502 Ry
     estimated scf accuracy    <       0.00162342 Ry

     total magnetization       =     0.03 Bohr mag/cell
     absolute magnetization    =     0.11 Bohr mag/cell

     iteration #  5     ecut=    44.10 Ry     beta=0.10
     Davidson diagonalization with overlap
     ethr =  1.62E-05,  avg # of iterations =  1.1
 
     Magnetic moment per site:
     atom:    1    charge:    4.0770    magn:    0.2300    constr:    0.0000

     total cpu time spent up to now is        5.3 secs

     total energy              =    -100.05311988 Ry
     Harris-Foulkes estimate   =    -100.05312484 Ry
     estimated scf accuracy    <       0.00113916 Ry

     total magnetization       =     0.26 Bohr mag/cell
     absolute magnetization    =     0.30 Bohr mag/cell

     iteration #  6     ecut=    44.10 Ry     beta=0.10
     Davidson diagonalization with overlap
     ethr =  1.14E-05,  avg # of iterations =  1.0
 
     Magnetic moment per site:
     atom:    1    charge:    4.0768    magn:    0.1322    constr:    0.0000

     total cpu time spent up to now is        6.1 secs

     total energy              =    -100.05333749 Ry
     Harris-Foulkes estimate   =    -100.05321256 Ry
     estimated scf accuracy    <       0.00061370 Ry

     total magnetization       =     0.25 Bohr mag/cell
     absolute magnetization    =     0.28 Bohr mag/cell

     iteration #  7     ecut=    44.10 Ry     beta=0.10
     Davidson diagonalization with overlap
     ethr =  6.14E-06,  avg # of iterations =  1.0
 
     Magnetic moment per site:
     atom:    1    charge:    4.0763    magn:    0.1260    constr:    0.0000

     total cpu time spent up to now is        6.8 secs

     total energy              =    -100.05372502 Ry
     Harris-Foulkes estimate   =    -100.05370749 Ry
     estimated scf accuracy    <       0.00013146 Ry

     total magnetization       =     0.16 Bohr mag/cell
     absolute magnetization    =     0.17 Bohr mag/cell

     iteration #  8     ecut=    44.10 Ry     beta=0.10
     Davidson diagonalization with overlap
     ethr =  1.31E-06,  avg # of iterations =  1.0
 
     Magnetic moment per site:
     atom:    1    charge:    4.0762    magn:    0.0744    constr:    0.0000

     total cpu time spent up to now is        7.5 secs

     total energy              =    -100.05372776 Ry
     Harris-Foulkes estimate   =    -100.05372733 Ry
     estimated scf accuracy    <       0.00011115 Ry

     total magnetization       =     0.15 Bohr mag/cell
     absolute magnetization    =     0.17 Bohr mag/cell

     iteration #  9     ecut=    44.10 Ry     beta=0.10
     Davidson diagonalization with overlap
     ethr =  1.11E-06,  avg # of iterations =  1.0
 
     Magnetic moment per site:
     atom:    1    charge:    4.0758    magn:    0.0329    constr:    0.0000

     total cpu time spent up to now is        8.3 secs

     total energy              =    -100.05381812 Ry
     Harris-Foulkes estimate   =    -100.05385461 Ry
     estimated scf accuracy    <       0.00003131 Ry

     total magnetization       =     0.09 Bohr mag/cell
     absolute magnetization    =     0.10 Bohr mag/cell

     iteration # 10     ecut=    44.10 Ry     beta=0.10
     Davidson diagonalization with overlap
     ethr =  3.13E-07,  avg # of iterations =  1.3
 
     Magnetic moment per site:
     atom:    1    charge:    4.0758    magn:    0.0343    constr:    0.0000

     total cpu time spent up to now is        9.0 secs

     total energy              =    -100.05390322 Ry
     Harris-Foulkes estimate   =    -100.05390438 Ry
     estimated scf accuracy    <       0.00000522 Ry

     total magnetization       =     0.04 Bohr mag/cell
     absolute magnetization    =     0.05 Bohr mag/cell

     iteration # 11     ecut=    44.10 Ry     beta=0.10
     Davidson diagonalization with overlap
     ethr =  5.22E-08,  avg # of iterations =  1.4
 
     Magnetic moment per site:
     atom:    1    charge:    4.0759    magn:    0.0104    constr:    0.0000

     total cpu time spent up to now is        9.8 secs

     total energy              =    -100.05388517 Ry
     Harris-Foulkes estimate   =    -100.05390351 Ry
     estimated scf accuracy    <       0.00000567 Ry

     total magnetization       =     0.04 Bohr mag/cell
     absolute magnetization    =     0.05 Bohr mag/cell

     iteration # 12     ecut=    44.10 Ry     beta=0.10
     Davidson diagonalization with overlap
     ethr =  5.22E-08,  avg # of iterations =  1.1
 
     Magnetic moment per site:
     atom:    1    charge:    4.0761    magn:    0.0087    constr:    0.0000

     total cpu time spent up to now is       10.6 secs

     End of self-consistent calculation

     Number of k-points >= 100: set verbosity='high' to print the bands.

     the Fermi energy is    33.9800 ev

!    total energy              =    -100.05391556 Ry
     Harris-Foulkes estimate   =    -100.05391527 Ry
     estimated scf accuracy    <       0.00000063 Ry

     The total energy is the sum of the following terms:

     one-electron contribution =      17.84702119 Ry
     hartree contribution      =      13.18575566 Ry
     xc contribution           =     -42.85816118 Ry
     ewald contribution        =     -88.22561908 Ry
     smearing contrib. (-TS)   =      -0.00291215 Ry

     total magnetization       =     0.01 Bohr mag/cell
     absolute magnetization    =     0.01 Bohr mag/cell

     convergence has been achieved in  12 iterations

     Forces acting on atoms (Ry/au):

     atom    1 type  1   force =     0.00000000    0.00000000    0.00000000

     Total force =     0.000000     Total SCF correction =     0.000000
 !ASE
  python dir          : /home/vossj/suncat/lib/python2.7/site-packages/espresso
  espresso dir        : /home/vossj/suncat/esdld/espresso-dynpy-beef/bin
  pseudo dir          : /home/vossj/suncat/esdld/psp
  ase-espresso py git : ffa2778-git



     Writing output data file calc.save
 
     init_run     :      4.08s CPU      0.48s WALL (       1 calls)
     electrons    :    147.79s CPU      9.83s WALL (       1 calls)
     forces       :      1.53s CPU      0.10s WALL (       1 calls)

     Called by init_run:
     wfcinit      :      3.81s CPU      0.25s WALL (       1 calls)
     potinit      :      0.02s CPU      0.02s WALL (       1 calls)

     Called by electrons:
     c_bands      :    115.98s CPU      7.70s WALL (      12 calls)
     sum_band     :     25.13s CPU      1.68s WALL (      12 calls)
     v_of_rho     :      3.73s CPU      0.27s WALL (      13 calls)
     newd         :      2.53s CPU      0.18s WALL (      13 calls)
     mix_rho      :      0.27s CPU      0.02s WALL (      12 calls)

     Called by c_bands:
     init_us_2    :      2.71s CPU      0.19s WALL (    3744 calls)
     cegterg      :    106.84s CPU      7.10s WALL (    1728 calls)

     Called by *egterg:
     h_psi        :     75.20s CPU      5.04s WALL (    4261 calls)
     s_psi        :      1.69s CPU      0.11s WALL (    4261 calls)
     g_psi        :      1.64s CPU      0.07s WALL (    2389 calls)
     cdiaghg      :     19.44s CPU      1.28s WALL (    4117 calls)

     Called by h_psi:
     add_vuspsi   :      1.26s CPU      0.12s WALL (    4261 calls)

     General routines
     calbec       :      5.42s CPU      0.25s WALL (    6133 calls)
     fft          :      1.23s CPU      0.09s WALL (     412 calls)
     ffts         :      0.03s CPU      0.00s WALL (      50 calls)
     fftw         :     66.55s CPU      4.53s WALL (  142572 calls)
     interpolate  :      0.19s CPU      0.01s WALL (      50 calls)
     davcio       :      0.00s CPU      0.01s WALL (     144 calls)
 
     Parallel routines
     fft_scatter  :      7.65s CPU      0.53s WALL (  143034 calls)
 
     PWSCF        :  2m36.88s CPU     0m10.92s WALL

 
   This run was terminated on:  12:43:47   7Mar2017            

=------------------------------------------------------------------------------=
   JOB DONE.
=------------------------------------------------------------------------------=
--------------------------------------------------------------------------
WARNING: It appears that your OpenFabrics subsystem is configured to only
allow registering part of your physical memory.  This can cause MPI jobs to
run with erratic performance, hang, and/or crash.

This may be caused by your OpenFabrics vendor limiting the amount of
physical memory that can be registered.  You should investigate the
relevant Linux kernel module parameters that control how much physical
memory can be registered, and increase them to allow registering all
physical memory on your machine.

See this Open MPI FAQ item for more information on these Linux kernel module
parameters:

    http://www.open-mpi.org/faq/?category=openfabrics#ib-locked-pages

  Local host:              sherlock-ln02
  Registerable memory:     16384 MiB
  Total memory:            65490 MiB

Your MPI job will continue, but may be behave poorly and/or hang.
--------------------------------------------------------------------------

     Program PWSCF v.5.1rc2 (svn rev. ) starts on  7Mar2017 at 12:43:47 

     This program is part of the open-source Quantum ESPRESSO suite
     for quantum simulation of materials; please cite
         "P. Giannozzi et al., J. Phys.:Condens. Matter 21 395502 (2009);
          URL http://www.quantum-espresso.org", 
     in publications or presentations arising from this work. More details at
     http://www.quantum-espresso.org/quote

     Parallel version (MPI), running on     1 processors
     Reading input from pw.inp
     Message from routine read_cards :
     DEPRECATED: no units specified in CELL_PARAMETERS card

     Current dimensions of program PWSCF are:
     Max number of different atomic species (ntypx) = 10
     Max number of k-points (npk) =  40000
     Max angular momentum in pseudopotentials (lmaxx) =  3

     IMPORTANT: XC functional enforced from input :
     Exchange-correlation      = RPBE ( 1  4 28  4 0)
     Any further DFT definition will be discarded
     Please, verify this is what you really want

               file Ni.UPF: wavefunction(s)  3D renormalized

     Subspace diagonalization in iterative solution of the eigenvalue problem:
     a serial algorithm will be used

 
     G-vector sticks info
     --------------------
     sticks:   dense  smooth     PW     G-vecs:    dense   smooth      PW
     Sum         439     187     61                 6231     1591     339
 
     Generating pointlists ...
     new r_m :   0.4125 (alat units)  0.7795 (a.u.) for type    1


     bravais-lattice index     =            0
     lattice parameter (alat)  =       1.8897  a.u.
     unit-cell volume          =      40.0913 (a.u.)^3
     number of atoms/cell      =            1
     number of atomic types    =            1
     number of electrons       =        10.00
     number of Kohn-Sham states=           15
     kinetic-energy cutoff     =      44.0992  Ry
     charge density cutoff     =     440.9919  Ry
     convergence threshold     =      7.3E-07
     mixing beta               =       0.1000
     number of iterations used =           10  plain     mixing
     Exchange-correlation      = RPBE ( 1  4 28  4 0)
     nstep                     =           50


     celldm(1)=   1.889726  celldm(2)=   0.000000  celldm(3)=   0.000000
     celldm(4)=   0.000000  celldm(5)=   0.000000  celldm(6)=   0.000000

     crystal axes: (cart. coord. in units of alat)
               a(1) = (   0.000000   1.437500   1.437500 )  
               a(2) = (   1.437500   0.000000   1.437500 )  
               a(3) = (   1.437500   1.437500   0.000000 )  

     reciprocal axes: (cart. coord. in units 2 pi/alat)
               b(1) = ( -0.347826  0.347826  0.347826 )  
               b(2) = (  0.347826 -0.347826  0.347826 )  
               b(3) = (  0.347826  0.347826 -0.347826 )  


     PseudoPot. # 1 for Ni read from file:
     /home/vossj/suncat/esdld/psp/Ni.UPF
     MD5 check sum: 8b2449ee0060d9c33484ccd47bb60870
     Pseudo is Ultrasoft + core correction, Zval = 10.0
     Generated using "atomic" code by A. Dal Corso  v.5.0.2 svn rev. 9415
     Using radial grid of 1195 points,  6 beta functions with: 
                l(1) =   0
                l(2) =   0
                l(3) =   1
                l(4) =   1
                l(5) =   2
                l(6) =   2
     Q(r) pseudized with 0 coefficients 


     atomic species   valence    mass     pseudopotential
        Ni1           10.00    58.69340     Ni( 1.00)

     Starting magnetic structure 
     atomic species   magnetization
        Ni1          0.300

     48 Sym. Ops., with inversion, found



   Cartesian axes

     site n.     atom                  positions (alat units)
         1           Ni1 tau(   1) = (   0.0000000   0.0000000   0.0000000  )

     number of k points=   144  Fermi-Dirac smearing, width (Ry)=  0.0073

     Number of k-points >= 100: set verbosity='high' to print them.

     Dense  grid:     6231 G-vectors     FFT dimensions: (  25,  25,  25)

     Smooth grid:     1591 G-vectors     FFT dimensions: (  18,  18,  18)

     Largest allocated arrays     est. size (Mb)     dimensions
        Kohn-Sham Wavefunctions         0.05 Mb     (     210,   15)
        NL pseudopotentials             0.06 Mb     (     210,   18)
        Each V/rho on FFT grid          0.48 Mb     (   15625,   2)
        Each G-vector array             0.05 Mb     (    6231)
        G-vector shells                 0.00 Mb     (     112)
     Largest temporary arrays     est. size (Mb)     dimensions
        Auxiliary wavefunctions         0.19 Mb     (     210,   60)
        Each subspace H/S matrix        0.05 Mb     (      60,   60)
        Each <psi_i|beta_j> matrix      0.00 Mb     (      18,   15)
        Arrays for rho mixing           2.38 Mb     (   15625,   10)

     Initial potential from superposition of free atoms

     starting charge    9.99975, renormalised to   10.00000
     Starting wfc are    9 randomized atomic wfcs +    6 random wfc

     total cpu time spent up to now is        0.8 secs

     Self-consistent Calculation

     iteration #  1     ecut=    44.10 Ry     beta=0.10
     Davidson diagonalization with overlap
     ethr =  1.00E-02,  avg # of iterations =  4.8

     Threshold (ethr) on eigenvalues was too large:
     Diagonalizing with lowered threshold

     Davidson diagonalization with overlap
     ethr =  9.92E-04,  avg # of iterations =  1.0
 
     Magnetic moment per site:
     atom:    1    charge:    4.0085    magn:    1.1289    constr:    0.0000

     total cpu time spent up to now is        3.8 secs

     total energy              =    -100.22310118 Ry
     Harris-Foulkes estimate   =    -100.20910463 Ry
     estimated scf accuracy    <       0.09922119 Ry

     total magnetization       =     0.83 Bohr mag/cell
     absolute magnetization    =     0.83 Bohr mag/cell

     iteration #  2     ecut=    44.10 Ry     beta=0.10
     Davidson diagonalization with overlap
     ethr =  9.92E-04,  avg # of iterations =  1.0
 
     Magnetic moment per site:
     atom:    1    charge:    4.0301    magn:    0.4342    constr:    0.0000

     total cpu time spent up to now is        4.8 secs

     total energy              =    -100.28228395 Ry
     Harris-Foulkes estimate   =    -100.22314357 Ry
     estimated scf accuracy    <       0.08132619 Ry

     total magnetization       =     0.82 Bohr mag/cell
     absolute magnetization    =     0.82 Bohr mag/cell

     iteration #  3     ecut=    44.10 Ry     beta=0.10
     Davidson diagonalization with overlap
     ethr =  8.13E-04,  avg # of iterations =  1.0
 
     Magnetic moment per site:
     atom:    1    charge:    4.0318    magn:    0.3755    constr:    0.0000

     total cpu time spent up to now is        5.8 secs

     total energy              =    -100.29436527 Ry
     Harris-Foulkes estimate   =    -100.29349722 Ry
     estimated scf accuracy    <       0.00310815 Ry

     total magnetization       =     0.46 Bohr mag/cell
     absolute magnetization    =     0.50 Bohr mag/cell

     iteration #  4     ecut=    44.10 Ry     beta=0.10
     Davidson diagonalization with overlap
     ethr =  3.11E-05,  avg # of iterations =  1.0
 
     Magnetic moment per site:
     atom:    1    charge:    4.0314    magn:    0.4101    constr:    0.0000

     total cpu time spent up to now is        6.7 secs

     total energy              =    -100.29399619 Ry
     Harris-Foulkes estimate   =    -100.29446808 Ry
     estimated scf accuracy    <       0.00173001 Ry

     total magnetization       =     0.41 Bohr mag/cell
     absolute magnetization    =     0.47 Bohr mag/cell

     iteration #  5     ecut=    44.10 Ry     beta=0.10
     Davidson diagonalization with overlap
     ethr =  1.73E-05,  avg # of iterations =  1.0
 
     Magnetic moment per site:
     atom:    1    charge:    4.0284    magn:    0.2383    constr:    0.0000

     total cpu time spent up to now is        7.7 secs

     total energy              =    -100.29460746 Ry
     Harris-Foulkes estimate   =    -100.29403011 Ry
     estimated scf accuracy    <       0.00244953 Ry

     total magnetization       =     0.44 Bohr mag/cell
     absolute magnetization    =     0.49 Bohr mag/cell

     iteration #  6     ecut=    44.10 Ry     beta=0.10
     Davidson diagonalization with overlap
     ethr =  1.73E-05,  avg # of iterations =  1.0
 
     Magnetic moment per site:
     atom:    1    charge:    4.0283    magn:    0.2218    constr:    0.0000

     total cpu time spent up to now is        8.6 secs

     total energy              =    -100.29549645 Ry
     Harris-Foulkes estimate   =    -100.29543733 Ry
     estimated scf accuracy    <       0.00023577 Ry

     total magnetization       =     0.31 Bohr mag/cell
     absolute magnetization    =     0.34 Bohr mag/cell

     iteration #  7     ecut=    44.10 Ry     beta=0.10
     Davidson diagonalization with overlap
     ethr =  2.36E-06,  avg # of iterations =  1.1
 
     Magnetic moment per site:
     atom:    1    charge:    4.0276    magn:    0.1884    constr:    0.0000

     total cpu time spent up to now is        9.6 secs

     total energy              =    -100.29558156 Ry
     Harris-Foulkes estimate   =    -100.29550813 Ry
     estimated scf accuracy    <       0.00017571 Ry

     total magnetization       =     0.29 Bohr mag/cell
     absolute magnetization    =     0.32 Bohr mag/cell

     iteration #  8     ecut=    44.10 Ry     beta=0.10
     Davidson diagonalization with overlap
     ethr =  1.76E-06,  avg # of iterations =  1.0
 
     Magnetic moment per site:
     atom:    1    charge:    4.0278    magn:    0.1922    constr:    0.0000

     total cpu time spent up to now is       10.5 secs

     total energy              =    -100.29563046 Ry
     Harris-Foulkes estimate   =    -100.29564629 Ry
     estimated scf accuracy    <       0.00011728 Ry

     total magnetization       =     0.25 Bohr mag/cell
     absolute magnetization    =     0.28 Bohr mag/cell

     iteration #  9     ecut=    44.10 Ry     beta=0.10
     Davidson diagonalization with overlap
     ethr =  1.17E-06,  avg # of iterations =  1.0
 
     Magnetic moment per site:
     atom:    1    charge:    4.0280    magn:    0.1776    constr:    0.0000

     total cpu time spent up to now is       11.5 secs

     total energy              =    -100.29566503 Ry
     Harris-Foulkes estimate   =    -100.29563149 Ry
     estimated scf accuracy    <       0.00011887 Ry

     total magnetization       =     0.26 Bohr mag/cell
     absolute magnetization    =     0.28 Bohr mag/cell

     iteration # 10     ecut=    44.10 Ry     beta=0.10
     Davidson diagonalization with overlap
     ethr =  1.17E-06,  avg # of iterations =  1.0
 
     Magnetic moment per site:
     atom:    1    charge:    4.0280    magn:    0.1715    constr:    0.0000

     total cpu time spent up to now is       12.4 secs

     total energy              =    -100.29569059 Ry
     Harris-Foulkes estimate   =    -100.29567527 Ry
     estimated scf accuracy    <       0.00008714 Ry

     total magnetization       =     0.24 Bohr mag/cell
     absolute magnetization    =     0.26 Bohr mag/cell

     iteration # 11     ecut=    44.10 Ry     beta=0.10
     Davidson diagonalization with overlap
     ethr =  8.71E-07,  avg # of iterations =  1.0
 
     Magnetic moment per site:
     atom:    1    charge:    4.0281    magn:    0.1376    constr:    0.0000

     total cpu time spent up to now is       13.4 secs

     total energy              =    -100.29571084 Ry
     Harris-Foulkes estimate   =    -100.29569248 Ry
     estimated scf accuracy    <       0.00007729 Ry

     total magnetization       =     0.23 Bohr mag/cell
     absolute magnetization    =     0.25 Bohr mag/cell

     iteration # 12     ecut=    44.10 Ry     beta=0.10
     Davidson diagonalization with overlap
     ethr =  7.73E-07,  avg # of iterations =  1.0
 
     Magnetic moment per site:
     atom:    1    charge:    4.0283    magn:    0.0835    constr:    0.0000

     total cpu time spent up to now is       14.3 secs

     total energy              =    -100.29568509 Ry
     Harris-Foulkes estimate   =    -100.29577019 Ry
     estimated scf accuracy    <       0.00003745 Ry

     total magnetization       =     0.19 Bohr mag/cell
     absolute magnetization    =     0.21 Bohr mag/cell

     iteration # 13     ecut=    44.10 Ry     beta=0.10
     Davidson diagonalization with overlap
     ethr =  3.75E-07,  avg # of iterations =  1.1
 
     Magnetic moment per site:
     atom:    1    charge:    4.0283    magn:    0.0954    constr:    0.0000

     total cpu time spent up to now is       15.3 secs

     total energy              =    -100.29582313 Ry
     Harris-Foulkes estimate   =    -100.29584309 Ry
     estimated scf accuracy    <       0.00000822 Ry

     total magnetization       =     0.12 Bohr mag/cell
     absolute magnetization    =     0.13 Bohr mag/cell

     iteration # 14     ecut=    44.10 Ry     beta=0.10
     Davidson diagonalization with overlap
     ethr =  8.22E-08,  avg # of iterations =  1.4
 
     Magnetic moment per site:
     atom:    1    charge:    4.0282    magn:    0.0776    constr:    0.0000

     total cpu time spent up to now is       16.3 secs

     total energy              =    -100.29583043 Ry
     Harris-Foulkes estimate   =    -100.29583157 Ry
     estimated scf accuracy    <       0.00001126 Ry

     total magnetization       =     0.13 Bohr mag/cell
     absolute magnetization    =     0.15 Bohr mag/cell

     iteration # 15     ecut=    44.10 Ry     beta=0.10
     Davidson diagonalization with overlap
     ethr =  8.22E-08,  avg # of iterations =  1.0
 
     Magnetic moment per site:
     atom:    1    charge:    4.0282    magn:    0.0465    constr:    0.0000

     total cpu time spent up to now is       17.2 secs

     total energy              =    -100.29581103 Ry
     Harris-Foulkes estimate   =    -100.29584833 Ry
     estimated scf accuracy    <       0.00000641 Ry

     total magnetization       =     0.11 Bohr mag/cell
     absolute magnetization    =     0.12 Bohr mag/cell

     iteration # 16     ecut=    44.10 Ry     beta=0.10
     Davidson diagonalization with overlap
     ethr =  6.41E-08,  avg # of iterations =  1.9
 
     Magnetic moment per site:
     atom:    1    charge:    4.0282    magn:    0.0433    constr:    0.0000

     total cpu time spent up to now is       18.3 secs

     total energy              =    -100.29586820 Ry
     Harris-Foulkes estimate   =    -100.29586747 Ry
     estimated scf accuracy    <       0.00000183 Ry

     total magnetization       =     0.07 Bohr mag/cell
     absolute magnetization    =     0.07 Bohr mag/cell

     iteration # 17     ecut=    44.10 Ry     beta=0.10
     Davidson diagonalization with overlap
     ethr =  1.83E-08,  avg # of iterations =  1.2
 
     Magnetic moment per site:
     atom:    1    charge:    4.0282    magn:    0.0446    constr:    0.0000

     total cpu time spent up to now is       19.3 secs

     total energy              =    -100.29586821 Ry
     Harris-Foulkes estimate   =    -100.29586882 Ry
     estimated scf accuracy    <       0.00000154 Ry

     total magnetization       =     0.06 Bohr mag/cell
     absolute magnetization    =     0.07 Bohr mag/cell

     iteration # 18     ecut=    44.10 Ry     beta=0.10
     Davidson diagonalization with overlap
     ethr =  1.54E-08,  avg # of iterations =  1.0
 
     Magnetic moment per site:
     atom:    1    charge:    4.0282    magn:    0.0417    constr:    0.0000

     total cpu time spent up to now is       20.2 secs

     total energy              =    -100.29586898 Ry
     Harris-Foulkes estimate   =    -100.29586831 Ry
     estimated scf accuracy    <       0.00000165 Ry

     total magnetization       =     0.06 Bohr mag/cell
     absolute magnetization    =     0.07 Bohr mag/cell

     iteration # 19     ecut=    44.10 Ry     beta=0.10
     Davidson diagonalization with overlap
     ethr =  1.54E-08,  avg # of iterations =  1.0
 
     Magnetic moment per site:
     atom:    1    charge:    4.0282    magn:    0.0208    constr:    0.0000

     total cpu time spent up to now is       21.2 secs

     total energy              =    -100.29584899 Ry
     Harris-Foulkes estimate   =    -100.29586949 Ry
     estimated scf accuracy    <       0.00000145 Ry

     total magnetization       =     0.06 Bohr mag/cell
     absolute magnetization    =     0.07 Bohr mag/cell

     iteration # 20     ecut=    44.10 Ry     beta=0.10
     Davidson diagonalization with overlap
     ethr =  1.45E-08,  avg # of iterations =  2.3
 
     Magnetic moment per site:
     atom:    1    charge:    4.0282    magn:    0.0193    constr:    0.0000

     total cpu time spent up to now is       22.3 secs

     End of self-consistent calculation

     Number of k-points >= 100: set verbosity='high' to print the bands.

     the Fermi energy is    29.1133 ev

!    total energy              =    -100.29587554 Ry
     Harris-Foulkes estimate   =    -100.29587536 Ry
     estimated scf accuracy    <       0.00000035 Ry

     The total energy is the sum of the following terms:

     one-electron contribution =      12.39385016 Ry
     hartree contribution      =      14.27356106 Ry
     xc contribution           =     -42.57018777 Ry
     ewald contribution        =     -84.38972260 Ry
     smearing contrib. (-TS)   =      -0.00337639 Ry

     total magnetization       =     0.03 Bohr mag/cell
     absolute magnetization    =     0.03 Bohr mag/cell

     convergence has been achieved in  20 iterations

     Forces acting on atoms (Ry/au):

     atom    1 type  1   force =     0.00000000    0.00000000    0.00000000

     Total force =     0.000000     Total SCF correction =     0.000000
 !ASE
  python dir          : /home/vossj/suncat/lib/python2.7/site-packages/espresso
  espresso dir        : /home/vossj/suncat/esdld/espresso-dynpy-beef/bin
  pseudo dir          : /home/vossj/suncat/esdld/psp
  ase-espresso py git : ffa2778-git



     Writing output data file calc.save
 
     init_run     :      5.35s CPU      0.57s WALL (       1 calls)
     electrons    :    323.49s CPU     21.46s WALL (       1 calls)
     forces       :      1.64s CPU      0.11s WALL (       1 calls)

     Called by init_run:
     wfcinit      :      5.07s CPU      0.33s WALL (       1 calls)
     potinit      :      0.02s CPU      0.02s WALL (       1 calls)

     Called by electrons:
     c_bands      :    252.88s CPU     16.79s WALL (      21 calls)
     sum_band     :     58.86s CPU      3.90s WALL (      21 calls)
     v_of_rho     :      6.33s CPU      0.44s WALL (      21 calls)
     newd         :      4.57s CPU      0.31s WALL (      21 calls)
     mix_rho      :      0.58s CPU      0.04s WALL (      21 calls)

     Called by c_bands:
     init_us_2    :      5.38s CPU      0.37s WALL (    6336 calls)
     cegterg      :    234.75s CPU     15.60s WALL (    3024 calls)

     Called by *egterg:
     h_psi        :    181.86s CPU     12.15s WALL (    7197 calls)
     s_psi        :      2.14s CPU      0.19s WALL (    7197 calls)
     g_psi        :      2.83s CPU      0.13s WALL (    4029 calls)
     cdiaghg      :     30.09s CPU      2.02s WALL (    6909 calls)

     Called by h_psi:
     add_vuspsi   :      2.39s CPU      0.22s WALL (    7197 calls)

     General routines
     calbec       :      9.30s CPU      0.42s WALL (   10365 calls)
     fft          :      2.08s CPU      0.14s WALL (     668 calls)
     ffts         :      0.07s CPU      0.01s WALL (      84 calls)
     fftw         :    175.11s CPU     11.77s WALL (  241000 calls)
     interpolate  :      0.37s CPU      0.03s WALL (      84 calls)
     davcio       :      0.09s CPU      0.01s WALL (     144 calls)
 
     Parallel routines
     fft_scatter  :     18.36s CPU      1.23s WALL (  241752 calls)
 
     PWSCF        :  5m34.79s CPU     0m22.65s WALL

 
   This run was terminated on:  12:44: 9   7Mar2017            

=------------------------------------------------------------------------------=
   JOB DONE.
=------------------------------------------------------------------------------=
--------------------------------------------------------------------------
WARNING: It appears that your OpenFabrics subsystem is configured to only
[...]

     iteration #  8     ecut=    44.10 Ry     beta=0.10
     Davidson diagonalization with overlap
     ethr =  8.49E-08,  avg # of iterations =  1.2
 
     Magnetic moment per site:
     atom:    1    charge:    3.9761    magn:    0.3905    constr:    0.0000

     total cpu time spent up to now is       27.2 secs

     total energy              =    -100.65705598 Ry
     Harris-Foulkes estimate   =    -100.65706715 Ry
     estimated scf accuracy    <       0.00001103 Ry

     total magnetization       =     0.66 Bohr mag/cell
     absolute magnetization    =     0.75 Bohr mag/cell

     iteration #  9     ecut=    44.10 Ry     beta=0.10
     Davidson diagonalization with overlap
     ethr =  8.49E-08,  avg # of iterations =  1.2
 
     Magnetic moment per site:
     atom:    1    charge:    3.9763    magn:    0.3995    constr:    0.0000

     total cpu time spent up to now is       29.7 secs

     total energy              =    -100.65707190 Ry
     Harris-Foulkes estimate   =    -100.65707043 Ry
     estimated scf accuracy    <       0.00000607 Ry

     total magnetization       =     0.64 Bohr mag/cell
     absolute magnetization    =     0.74 Bohr mag/cell

     iteration # 10     ecut=    44.10 Ry     beta=0.10
     Davidson diagonalization with overlap
     ethr =  6.07E-08,  avg # of iterations =  1.0
 
     Magnetic moment per site:
     atom:    1    charge:    3.9764    magn:    0.4003    constr:    0.0000

     total cpu time spent up to now is       32.2 secs

     End of self-consistent calculation

     Number of k-points >= 100: set verbosity='high' to print the bands.

     the Fermi energy is    13.1678 ev

!    total energy              =    -100.65707434 Ry
     Harris-Foulkes estimate   =    -100.65707402 Ry
     estimated scf accuracy    <       0.00000017 Ry

     The total energy is the sum of the following terms:

     one-electron contribution =     -11.38887249 Ry
     hartree contribution      =      20.76885769 Ry
     xc contribution           =     -41.84243936 Ry
     ewald contribution        =     -68.19043973 Ry
     smearing contrib. (-TS)   =      -0.00418046 Ry

     total magnetization       =     0.65 Bohr mag/cell
     absolute magnetization    =     0.74 Bohr mag/cell

     convergence has been achieved in  10 iterations

     Forces acting on atoms (Ry/au):

     atom    1 type  1   force =     0.00000000    0.00000000    0.00000000

     Total force =     0.000000     Total SCF correction =     0.000000
 !ASE
  python dir          : /home/vossj/suncat/lib/python2.7/site-packages/espresso
  espresso dir        : /home/vossj/suncat/esdld/espresso-dynpy-beef/bin
  pseudo dir          : /home/vossj/suncat/esdld/psp
  ase-espresso py git : ffa2778-git



     Writing output data file calc.save
 
     init_run     :     13.00s CPU      1.19s WALL (       1 calls)
     electrons    :    431.76s CPU     30.83s WALL (       1 calls)
     forces       :      3.61s CPU      0.26s WALL (       1 calls)

     Called by init_run:
     wfcinit      :     12.49s CPU      0.88s WALL (       1 calls)
     potinit      :      0.04s CPU      0.04s WALL (       1 calls)

     Called by electrons:
     c_bands      :    338.35s CPU     24.16s WALL (      11 calls)
     sum_band     :     80.42s CPU      5.72s WALL (      11 calls)
     v_of_rho     :      7.45s CPU      0.58s WALL (      11 calls)
     newd         :      4.99s CPU      0.39s WALL (      11 calls)
     mix_rho      :      0.41s CPU      0.03s WALL (      11 calls)

     Called by c_bands:
     init_us_2    :      6.30s CPU      0.45s WALL (    3456 calls)
     cegterg      :    317.64s CPU     22.70s WALL (    1584 calls)

     Called by *egterg:
     h_psi        :    273.10s CPU     19.66s WALL (    4081 calls)
     s_psi        :      1.37s CPU      0.14s WALL (    4081 calls)
     g_psi        :      3.11s CPU      0.17s WALL (    2353 calls)
     cdiaghg      :     32.34s CPU      2.20s WALL (    3793 calls)

     Called by h_psi:
     add_vuspsi   :      3.45s CPU      0.16s WALL (    4081 calls)

     General routines
     calbec       :      7.00s CPU      0.66s WALL (    5809 calls)
     fft          :      2.03s CPU      0.16s WALL (     358 calls)
     ffts         :      0.09s CPU      0.01s WALL (      44 calls)
     fftw         :    257.77s CPU     18.52s WALL (  149346 calls)
     interpolate  :      0.41s CPU      0.03s WALL (      44 calls)
     davcio       :      0.00s CPU      0.01s WALL (     144 calls)
 
     Parallel routines
     fft_scatter  :     31.30s CPU      2.22s WALL (  149748 calls)
 
     PWSCF        :  7m31.36s CPU     0m32.76s WALL

 
   This run was terminated on:  11:14:41  10Mar2017            

=------------------------------------------------------------------------------=
   JOB DONE.
=------------------------------------------------------------------------------=
--------------------------------------------------------------------------
WARNING: It appears that your OpenFabrics subsystem is configured to only
allow registering part of your physical memory.  This can cause MPI jobs to
run with erratic performance, hang, and/or crash.

This may be caused by your OpenFabrics vendor limiting the amount of
physical memory that can be registered.  You should investigate the
relevant Linux kernel module parameters that control how much physical
memory can be registered, and increase them to allow registering all
physical memory on your machine.

See this Open MPI FAQ item for more information on these Linux kernel module
parameters:

    http://www.open-mpi.org/faq/?category=openfabrics#ib-locked-pages

  Local host:              sherlock-ln03
  Registerable memory:     16384 MiB
  Total memory:            65314 MiB

Your MPI job will continue, but may be behave poorly and/or hang.
--------------------------------------------------------------------------

     Program PWSCF v.5.1rc2 (svn rev. ) starts on 10Mar2017 at 11:14:41 

     This program is part of the open-source Quantum ESPRESSO suite
     for quantum simulation of materials; please cite
         "P. Giannozzi et al., J. Phys.:Condens. Matter 21 395502 (2009);
          URL http://www.quantum-espresso.org", 
     in publications or presentations arising from this work. More details at
     http://www.quantum-espresso.org/quote

     Parallel version (MPI), running on     1 processors
     Reading input from pw.inp
     Message from routine read_cards :
     DEPRECATED: no units specified in CELL_PARAMETERS card

     Current dimensions of program PWSCF are:
     Max number of different atomic species (ntypx) = 10
     Max number of k-points (npk) =  40000
     Max angular momentum in pseudopotentials (lmaxx) =  3

     IMPORTANT: XC functional enforced from input :
     Exchange-correlation      = RPBE ( 1  4 28  4 0)
     Any further DFT definition will be discarded
     Please, verify this is what you really want

               file Ni.UPF: wavefunction(s)  3D renormalized

     Subspace diagonalization in iterative solution of the eigenvalue problem:
     a serial algorithm will be used

 
     G-vector sticks info
     --------------------
     sticks:   dense  smooth     PW     G-vecs:    dense   smooth      PW
     Sum         685     271     91                11935     2975     609
 
     Generating pointlists ...
     new r_m :   0.4125 (alat units)  0.7795 (a.u.) for type    1


     bravais-lattice index     =            0
     lattice parameter (alat)  =       1.8897  a.u.
     unit-cell volume          =      76.0003 (a.u.)^3
     number of atoms/cell      =            1
     number of atomic types    =            1
     number of electrons       =        10.00
     number of Kohn-Sham states=           17
     kinetic-energy cutoff     =      44.0992  Ry
     charge density cutoff     =     440.9919  Ry
     convergence threshold     =      7.3E-07
     mixing beta               =       0.1000
     number of iterations used =           10  plain     mixing
     Exchange-correlation      = RPBE ( 1  4 28  4 0)
     nstep                     =           50


     celldm(1)=   1.889726  celldm(2)=   0.000000  celldm(3)=   0.000000
     celldm(4)=   0.000000  celldm(5)=   0.000000  celldm(6)=   0.000000

     crystal axes: (cart. coord. in units of alat)
               a(1) = (   0.000000   1.779083   1.779083 )  
               a(2) = (   1.779083   0.000000   1.779083 )  
               a(3) = (   1.779083   1.779083   0.000000 )  

     reciprocal axes: (cart. coord. in units 2 pi/alat)
               b(1) = ( -0.281044  0.281044  0.281044 )  
               b(2) = (  0.281044 -0.281044  0.281044 )  
               b(3) = (  0.281044  0.281044 -0.281044 )  


     PseudoPot. # 1 for Ni read from file:
     /home/vossj/suncat/esdld/psp/Ni.UPF
     MD5 check sum: 8b2449ee0060d9c33484ccd47bb60870
     Pseudo is Ultrasoft + core correction, Zval = 10.0
     Generated using "atomic" code by A. Dal Corso  v.5.0.2 svn rev. 9415
     Using radial grid of 1195 points,  6 beta functions with: 
                l(1) =   0
                l(2) =   0
                l(3) =   1
                l(4) =   1
                l(5) =   2
                l(6) =   2
     Q(r) pseudized with 0 coefficients 


     atomic species   valence    mass     pseudopotential
        Ni1           10.00    58.69340     Ni( 1.00)

     Starting magnetic structure 
     atomic species   magnetization
        Ni1          0.300

     48 Sym. Ops., with inversion, found



   Cartesian axes

     site n.     atom                  positions (alat units)
         1           Ni1 tau(   1) = (   0.0000000   0.0000000   0.0000000  )

     number of k points=   144  Fermi-Dirac smearing, width (Ry)=  0.0073

     Number of k-points >= 100: set verbosity='high' to print them.

     Dense  grid:    11935 G-vectors     FFT dimensions: (  32,  32,  32)

     Smooth grid:     2975 G-vectors     FFT dimensions: (  24,  24,  24)

     Largest allocated arrays     est. size (Mb)     dimensions
        Kohn-Sham Wavefunctions         0.10 Mb     (     388,   17)
        NL pseudopotentials             0.11 Mb     (     388,   18)
        Each V/rho on FFT grid          1.00 Mb     (   32768,   2)
        Each G-vector array             0.09 Mb     (   11935)
        G-vector shells                 0.00 Mb     (     170)
     Largest temporary arrays     est. size (Mb)     dimensions
        Auxiliary wavefunctions         0.40 Mb     (     388,   68)
        Each subspace H/S matrix        0.07 Mb     (      68,   68)
        Each <psi_i|beta_j> matrix      0.00 Mb     (      18,   17)
        Arrays for rho mixing           5.00 Mb     (   32768,   10)

     Initial potential from superposition of free atoms

     starting charge    9.99975, renormalised to   10.00000
     Starting wfc are    9 randomized atomic wfcs +    8 random wfc

     total cpu time spent up to now is        1.4 secs

     Self-consistent Calculation

     iteration #  1     ecut=    44.10 Ry     beta=0.10
     Davidson diagonalization with overlap
     ethr =  1.00E-02,  avg # of iterations =  5.5

     Threshold (ethr) on eigenvalues was too large:
     Diagonalizing with lowered threshold

     Davidson diagonalization with overlap
     ethr =  6.79E-04,  avg # of iterations =  1.0
 
     Magnetic moment per site:
     atom:    1    charge:    3.9617    magn:    1.1269    constr:    0.0000

     total cpu time spent up to now is        8.2 secs

     total energy              =    -100.60690382 Ry
     Harris-Foulkes estimate   =    -100.59808907 Ry
     estimated scf accuracy    <       0.06796408 Ry

     total magnetization       =     1.08 Bohr mag/cell
     absolute magnetization    =     1.08 Bohr mag/cell

     iteration #  2     ecut=    44.10 Ry     beta=0.10
     Davidson diagonalization with overlap
     ethr =  6.80E-04,  avg # of iterations =  1.0
 
     Magnetic moment per site:
     atom:    1    charge:    3.9831    magn:    0.7764    constr:    0.0000

     total cpu time spent up to now is       10.1 secs

     total energy              =    -100.64181453 Ry
     Harris-Foulkes estimate   =    -100.60706990 Ry
     estimated scf accuracy    <       0.05455410 Ry

     total magnetization       =     1.06 Bohr mag/cell
     absolute magnetization    =     1.06 Bohr mag/cell

     iteration #  3     ecut=    44.10 Ry     beta=0.10
     Davidson diagonalization with overlap
     ethr =  5.46E-04,  avg # of iterations =  1.0
 
     Magnetic moment per site:
     atom:    1    charge:    3.9848    magn:    0.2881    constr:    0.0000

     total cpu time spent up to now is       12.0 secs

     total energy              =    -100.64859156 Ry
     Harris-Foulkes estimate   =    -100.64604562 Ry
     estimated scf accuracy    <       0.01564287 Ry

     total magnetization       =     0.86 Bohr mag/cell
     absolute magnetization    =     0.91 Bohr mag/cell

     iteration #  4     ecut=    44.10 Ry     beta=0.10
     Davidson diagonalization with overlap
     ethr =  1.56E-04,  avg # of iterations =  1.0
 
     Magnetic moment per site:
     atom:    1    charge:    3.9741    magn:    0.4780    constr:    0.0000

     total cpu time spent up to now is       13.9 secs

     total energy              =    -100.65486509 Ry
     Harris-Foulkes estimate   =    -100.65452644 Ry
     estimated scf accuracy    <       0.00106532 Ry

     total magnetization       =     0.49 Bohr mag/cell
     absolute magnetization    =     0.65 Bohr mag/cell

     iteration #  5     ecut=    44.10 Ry     beta=0.10
     Davidson diagonalization with overlap
     ethr =  1.07E-05,  avg # of iterations =  1.3
 
     Magnetic moment per site:
     atom:    1    charge:    3.9754    magn:    0.4738    constr:    0.0000

     total cpu time spent up to now is       15.9 secs

     total energy              =    -100.65686833 Ry
     Harris-Foulkes estimate   =    -100.65692317 Ry
     estimated scf accuracy    <       0.00080129 Ry

     total magnetization       =     0.69 Bohr mag/cell
     absolute magnetization    =     0.79 Bohr mag/cell

     iteration #  6     ecut=    44.10 Ry     beta=0.10
     Davidson diagonalization with overlap
     ethr =  8.01E-06,  avg # of iterations =  1.0
 
     Magnetic moment per site:
     atom:    1    charge:    3.9762    magn:    0.4126    constr:    0.0000

     total cpu time spent up to now is       17.8 secs

     total energy              =    -100.65698278 Ry
     Harris-Foulkes estimate   =    -100.65688140 Ry
     estimated scf accuracy    <       0.00047801 Ry

     total magnetization       =     0.69 Bohr mag/cell
     absolute magnetization    =     0.79 Bohr mag/cell

     iteration #  7     ecut=    44.10 Ry     beta=0.10
     Davidson diagonalization with overlap
     ethr =  4.78E-06,  avg # of iterations =  1.0
 
     Magnetic moment per site:
     atom:    1    charge:    3.9762    magn:    0.4144    constr:    0.0000

     total cpu time spent up to now is       19.8 secs

     total energy              =    -100.65707219 Ry
     Harris-Foulkes estimate   =    -100.65707416 Ry
     estimated scf accuracy    <       0.00000867 Ry

     total magnetization       =     0.66 Bohr mag/cell
     absolute magnetization    =     0.75 Bohr mag/cell

     iteration #  8     ecut=    44.10 Ry     beta=0.10
     Davidson diagonalization with overlap
     ethr =  8.67E-08,  avg # of iterations =  1.3
 
     Magnetic moment per site:
     atom:    1    charge:    3.9761    magn:    0.3907    constr:    0.0000

     total cpu time spent up to now is       21.7 secs

     total energy              =    -100.65706151 Ry
     Harris-Foulkes estimate   =    -100.65707247 Ry
     estimated scf accuracy    <       0.00001115 Ry

     total magnetization       =     0.66 Bohr mag/cell
     absolute magnetization    =     0.75 Bohr mag/cell

     iteration #  9     ecut=    44.10 Ry     beta=0.10
     Davidson diagonalization with overlap
     ethr =  8.67E-08,  avg # of iterations =  1.2
 
     Magnetic moment per site:
     atom:    1    charge:    3.9764    magn:    0.3995    constr:    0.0000

     total cpu time spent up to now is       23.7 secs

     total energy              =    -100.65707731 Ry
     Harris-Foulkes estimate   =    -100.65707587 Ry
     estimated scf accuracy    <       0.00000595 Ry

     total magnetization       =     0.64 Bohr mag/cell
     absolute magnetization    =     0.74 Bohr mag/cell

     iteration # 10     ecut=    44.10 Ry     beta=0.10
     Davidson diagonalization with overlap
     ethr =  5.95E-08,  avg # of iterations =  1.0
 
     Magnetic moment per site:
     atom:    1    charge:    3.9764    magn:    0.4004    constr:    0.0000

     total cpu time spent up to now is       25.7 secs

     End of self-consistent calculation

     Number of k-points >= 100: set verbosity='high' to print the bands.

     the Fermi energy is    13.1650 ev

!    total energy              =    -100.65707971 Ry
     Harris-Foulkes estimate   =    -100.65707939 Ry
     estimated scf accuracy    <       0.00000017 Ry

     The total energy is the sum of the following terms:

     one-electron contribution =     -11.39423109 Ry
     hartree contribution      =      20.77061617 Ry
     xc contribution           =     -41.84235335 Ry
     ewald contribution        =     -68.18693061 Ry
     smearing contrib. (-TS)   =      -0.00418083 Ry

     total magnetization       =     0.65 Bohr mag/cell
     absolute magnetization    =     0.74 Bohr mag/cell

     convergence has been achieved in  10 iterations

     Forces acting on atoms (Ry/au):

     atom    1 type  1   force =     0.00000000    0.00000000    0.00000000

     Total force =     0.000000     Total SCF correction =     0.000000
 !ASE

     Writing output data file calc.save
 
     init_run     :     13.54s CPU      1.22s WALL (       1 calls)
     electrons    :    349.43s CPU     24.23s WALL (       1 calls)
     forces       :      2.81s CPU      0.19s WALL (       1 calls)

     Called by init_run:
     wfcinit      :     12.97s CPU      0.92s WALL (       1 calls)
     potinit      :      0.04s CPU      0.04s WALL (       1 calls)

     Called by electrons:
     c_bands      :    274.76s CPU     19.05s WALL (      11 calls)
     sum_band     :     63.99s CPU      4.43s WALL (      11 calls)
     v_of_rho     :      6.25s CPU      0.47s WALL (      11 calls)
     newd         :      4.11s CPU      0.31s WALL (      11 calls)
     mix_rho      :      0.37s CPU      0.03s WALL (      11 calls)

     Called by c_bands:
     init_us_2    :      4.77s CPU      0.34s WALL (    3456 calls)
     cegterg      :    258.96s CPU     17.97s WALL (    1584 calls)

     Called by *egterg:
     h_psi        :    220.03s CPU     15.40s WALL (    4078 calls)
     s_psi        :      1.69s CPU      0.13s WALL (    4078 calls)
     g_psi        :      2.70s CPU      0.16s WALL (    2350 calls)
     cdiaghg      :     29.89s CPU      1.92s WALL (    3790 calls)

     Called by h_psi:
     add_vuspsi   :      3.53s CPU      0.18s WALL (    4078 calls)

     General routines
     calbec       :     10.88s CPU      0.87s WALL (    5806 calls)
     fft          :      1.64s CPU      0.13s WALL (     358 calls)
     ffts         :      0.07s CPU      0.01s WALL (      44 calls)
     fftw         :    200.39s CPU     14.03s WALL (  149392 calls)
     interpolate  :      0.32s CPU      0.02s WALL (      44 calls)
     davcio       :      0.00s CPU      0.01s WALL (     144 calls)
 
     Parallel routines
     fft_scatter  :     26.39s CPU      1.85s WALL (  149794 calls)
 
     PWSCF        :  6m 9.35s CPU     0m26.11s WALL

 
   This run was terminated on:  11:15: 7  10Mar2017            

=------------------------------------------------------------------------------=
   JOB DONE.
=------------------------------------------------------------------------------=
