  python dir          : /home/vossj/suncat/lib/python2.7/site-packages/espresso
  espresso dir        : /home/vossj/suncat/esdld/espresso-dynpy-beef/bin
  pseudo dir          : /home/alatimer/bin/psp/esp_psp_w_gbrvRu/
  ase-espresso py git : ffa2778-git



     Program PWSCF v.5.1rc2 (svn rev. ) starts on 24Feb2018 at  4:16:10 

     This program is part of the open-source Quantum ESPRESSO suite
     for quantum simulation of materials; please cite
         "P. Giannozzi et al., J. Phys.:Condens. Matter 21 395502 (2009);
          URL http://www.quantum-espresso.org", 
     in publications or presentations arising from this work. More details at
     http://www.quantum-espresso.org/quote

     Parallel version (MPI), running on    16 processors
     R & G space division:  proc/nbgrp/npool/nimage =      16
     Reading input from pw.inp
     Message from routine read_cards :
     DEPRECATED: no units specified in CELL_PARAMETERS card

     Current dimensions of program PWSCF are:
     Max number of different atomic species (ntypx) = 10
     Max number of k-points (npk) =  40000
     Max angular momentum in pseudopotentials (lmaxx) =  3
     Presently no symmetry can be used with electric field


     IMPORTANT: XC functional enforced from input :
     Exchange-correlation      = RPBE ( 1  4 28  4 0)
     Any further DFT definition will be discarded
     Please, verify this is what you really want


     Subspace diagonalization in iterative solution of the eigenvalue problem:
     a serial algorithm will be used

 
     Parallelization info
     --------------------
     sticks:   dense  smooth     PW     G-vecs:    dense   smooth      PW
     Min         636     254     68               100790    25480    3562
     Max         637     255     69               100796    25523    3569
     Sum       10181    4073   1103              1612669   408063   57071
 
     Generating pointlists ...
     new r_m :   0.4125 (alat units)  0.7795 (a.u.) for type    1
     new r_m :   0.4125 (alat units)  0.7795 (a.u.) for type    2


     bravais-lattice index     =            0
     lattice parameter (alat)  =       1.8897  a.u.
     unit-cell volume          =   10312.9744 (a.u.)^3
     number of atoms/cell      =           37
     number of atomic types    =            2
     number of electrons       =       328.00
     number of Kohn-Sham states=          264
     kinetic-energy cutoff     =      44.0992  Ry
     charge density cutoff     =     440.9919  Ry
     convergence threshold     =      7.3E-07
     mixing beta               =       0.1000
     number of iterations used =           10  plain     mixing
     Exchange-correlation      = RPBE ( 1  4 28  4 0)
     nstep                     =           50


     celldm(1)=   1.889726  celldm(2)=   0.000000  celldm(3)=   0.000000
     celldm(4)=   0.000000  celldm(5)=   0.000000  celldm(6)=   0.000000

     crystal axes: (cart. coord. in units of alat)
               a(1) = (  13.134537   0.000000   0.000000 )  
               a(2) = (  -4.378179   6.191680   0.000000 )  
               a(3) = (   0.000000   0.000000  18.791614 )  

     reciprocal axes: (cart. coord. in units 2 pi/alat)
               b(1) = (  0.076135  0.053836  0.000000 )  
               b(2) = (  0.000000  0.161507  0.000000 )  
               b(3) = (  0.000000  0.000000  0.053215 )  


     PseudoPot. # 1 for Co read from file:
     /home/alatimer/bin/psp/esp_psp_w_gbrvRu/Co.UPF
     MD5 check sum: f36dda9fe147c5f42efc2a4f7ec0da3d
     Pseudo is Ultrasoft + core correction, Zval =  9.0
     Generated by new atomic code, or converted to UPF format
     Using radial grid of  937 points,  3 beta functions with: 
                l(1) =   1
                l(2) =   2
                l(3) =   2
     Q(r) pseudized with  8 coefficients,  rinner =    1.000   1.000   1.000
                                                       1.000   1.000

     PseudoPot. # 2 for  C read from file:
     /home/alatimer/bin/psp/esp_psp_w_gbrvRu/C.UPF
     MD5 check sum: ab446d787031eba755f1d5ee46644bb0
     Pseudo is Ultrasoft + core correction, Zval =  4.0
     Generated using "atomic" code by A. Dal Corso  v.5.0.2 svn rev. 9415
     Using radial grid of 1073 points,  4 beta functions with: 
                l(1) =   0
                l(2) =   0
                l(3) =   1
                l(4) =   1
     Q(r) pseudized with 0 coefficients 


     atomic species   valence    mass     pseudopotential
        Co1            9.00    58.93320     Co( 1.00)
        C1             4.00    12.01100      C( 1.00)

     Starting magnetic structure 
     atomic species   magnetization
        Co1          0.444
        C1           1.000

     No symmetry found



   Cartesian axes

     site n.     atom                  positions (alat units)
         1           Co1 tau(   1) = (   0.0000000   0.0000000   7.5000000  )
         2           Co1 tau(   2) = (   2.1890894   0.0000000   8.7638714  )
         3           Co1 tau(   3) = (   0.0000000   0.0000000  10.0277427  )
         4           Co1 tau(   4) = (   2.1890894   0.0000000  11.2916141  )
         5           Co1 tau(   5) = (  -1.4593930   2.0638933   7.5000000  )
         6           Co1 tau(   6) = (   0.7296965   2.0638933   8.7638714  )
         7           Co1 tau(   7) = (  -1.4593930   2.0638933  10.0277427  )
         8           Co1 tau(   8) = (   0.7296965   2.0638933  11.2916141  )
         9           Co1 tau(   9) = (  -2.9187859   4.1277866   7.5000000  )
        10           Co1 tau(  10) = (  -0.7296965   4.1277866   8.7638714  )
        11           Co1 tau(  11) = (  -2.9187859   4.1277866  10.0277427  )
        12           Co1 tau(  12) = (  -0.7296965   4.1277866  11.2916141  )
        13           Co1 tau(  13) = (   4.3781789   0.0000000   7.5000000  )
        14           Co1 tau(  14) = (   6.5672683   0.0000000   8.7638714  )
        15           Co1 tau(  15) = (   4.3781789   0.0000000  10.0277427  )
        16           Co1 tau(  16) = (   6.5672683   0.0000000  11.2916141  )
        17           Co1 tau(  17) = (   2.9187859   2.0638933   7.5000000  )
        18           Co1 tau(  18) = (   5.1078753   2.0638933   8.7638714  )
        19           Co1 tau(  19) = (   2.9187859   2.0638933  10.0277427  )
        20           Co1 tau(  20) = (   5.1078753   2.0638933  11.2916141  )
        21           Co1 tau(  21) = (   1.4593930   4.1277866   7.5000000  )
        22           Co1 tau(  22) = (   3.6484824   4.1277866   8.7638714  )
        23           Co1 tau(  23) = (   1.4593930   4.1277866  10.0277427  )
        24           Co1 tau(  24) = (   3.6484824   4.1277866  11.2916141  )
        25           Co1 tau(  25) = (   8.7563577   0.0000000   7.5000000  )
        26           Co1 tau(  26) = (  10.9454471   0.0000000   8.7638714  )
        27           Co1 tau(  27) = (   8.7563577   0.0000000  10.0277427  )
        28           Co1 tau(  28) = (  10.9454471   0.0000000  11.2916141  )
        29           Co1 tau(  29) = (   7.2969648   2.0638933   7.5000000  )
        30           Co1 tau(  30) = (   9.4860542   2.0638933   8.7638714  )
        31           Co1 tau(  31) = (   7.2969648   2.0638933  10.0277427  )
        32           Co1 tau(  32) = (   9.4860542   2.0638933  11.2916141  )
        33           Co1 tau(  33) = (   5.8375718   4.1277866   7.5000000  )
        34           Co1 tau(  34) = (   8.0266612   4.1277866   8.7638714  )
        35           Co1 tau(  35) = (   5.8375718   4.1277866  10.0277427  )
        36           Co1 tau(  36) = (   8.0266612   4.1277866  11.2916141  )
        37           C1  tau(  37) = (   1.4593930   1.0319467  12.8916141  )

     number of k points=    10  Fermi-Dirac smearing, width (Ry)=  0.0073
                       cart. coord. in units 2pi/alat
        k(    1) = (   0.0000000   0.0000000   0.0000000), wk =   0.1111111
        k(    2) = (   0.0000000   0.0538357   0.0000000), wk =   0.2222222
        k(    3) = (   0.0253784   0.0179452   0.0000000), wk =   0.2222222
        k(    4) = (   0.0253784   0.0717809   0.0000000), wk =   0.2222222
        k(    5) = (   0.0253784  -0.0358905   0.0000000), wk =   0.2222222
        k(    6) = (   0.0000000   0.0000000   0.0000000), wk =   0.1111111
        k(    7) = (   0.0000000   0.0538357   0.0000000), wk =   0.2222222
        k(    8) = (   0.0253784   0.0179452   0.0000000), wk =   0.2222222
        k(    9) = (   0.0253784   0.0717809   0.0000000), wk =   0.2222222
        k(   10) = (   0.0253784  -0.0358905   0.0000000), wk =   0.2222222

     Dense  grid:  1612669 G-vectors     FFT dimensions: ( 180,  96, 240)

     Smooth grid:   408063 G-vectors     FFT dimensions: ( 108,  64, 160)

     Largest allocated arrays     est. size (Mb)     dimensions
        Kohn-Sham Wavefunctions        12.91 Mb     (    3206,  264)
        NL pseudopotentials            23.29 Mb     (    3206,  476)
        Each V/rho on FFT grid          7.91 Mb     (  259200,   2)
        Each G-vector array             0.77 Mb     (  100790)
        G-vector shells                 0.34 Mb     (   44082)
     Largest temporary arrays     est. size (Mb)     dimensions
        Auxiliary wavefunctions        51.66 Mb     (    3206, 1056)
        Each subspace H/S matrix       17.02 Mb     (    1056, 1056)
        Each <psi_i|beta_j> matrix      1.92 Mb     (     476,  264)
        Arrays for rho mixing          39.55 Mb     (  259200,   10)

     Initial potential from superposition of free atoms
     Check: negative starting charge=(component1):   -0.002675
     Check: negative starting charge=(component2):   -0.001079

     starting charge  327.99028, renormalised to  328.00000

     negative rho (up, down):  2.675E-03 1.079E-03
 
     Adding external electric field

     Computed dipole along edir(3) : 
        Dipole               -0.0005 Ry au,         -0.0013 Debye
        Dipole field         -0.0000 Ry au
 
        Potential amp.        0.0000 Ry
        Total length         34.6232 bohr
 
 
     Adding external electric field

     Computed dipole along edir(3) : 
        Dipole               -0.0005 Ry au,         -0.0013 Debye
        Dipole field         -0.0000 Ry au
 
        Potential amp.        0.0000 Ry
        Total length         34.6232 bohr
 
     Starting wfc are  328 randomized atomic wfcs

     total cpu time spent up to now is       44.5 secs

     Self-consistent Calculation

     iteration #  1     ecut=    44.10 Ry     beta=0.10
     Davidson diagonalization with overlap
     ethr =  1.00E-02,  avg # of iterations =  6.8

     negative rho (up, down):  2.642E-03 1.153E-03
 
     Adding external electric field

     Computed dipole along edir(3) : 
        Dipole               -0.3879 Ry au,         -0.9858 Debye
        Dipole field         -0.0005 Ry au
 
        Potential amp.        0.0327 Ry
        Total length         34.6232 bohr
 
 
     Adding external electric field

     Computed dipole along edir(3) : 
        Dipole               -0.3879 Ry au,         -0.9858 Debye
        Dipole field         -0.0005 Ry au
 
        Potential amp.        0.0327 Ry
        Total length         34.6232 bohr
 
 
     Magnetic moment per site:
     atom:    1    charge:    3.1925    magn:    1.4065    constr:    0.0000
     atom:    2    charge:    3.2407    magn:    1.3602    constr:    0.0000
     atom:    3    charge:    3.2407    magn:    1.3620    constr:    0.0000
     atom:    4    charge:    3.2095    magn:    1.3868    constr:    0.0000
     atom:    5    charge:    3.1919    magn:    1.4066    constr:    0.0000
     atom:    6    charge:    3.2407    magn:    1.3602    constr:    0.0000
     atom:    7    charge:    3.2407    magn:    1.3608    constr:    0.0000
     atom:    8    charge:    3.2096    magn:    1.3868    constr:    0.0000
     atom:    9    charge:    3.1920    magn:    1.4067    constr:    0.0000
     atom:   10    charge:    3.2410    magn:    1.3608    constr:    0.0000
     atom:   11    charge:    3.2407    magn:    1.3608    constr:    0.0000
     atom:   12    charge:    3.1919    magn:    1.4073    constr:    0.0000
     atom:   13    charge:    3.1919    magn:    1.4066    constr:    0.0000
     atom:   14    charge:    3.2409    magn:    1.3604    constr:    0.0000
     atom:   15    charge:    3.2407    magn:    1.3608    constr:    0.0000
     atom:   16    charge:    3.1916    magn:    1.4063    constr:    0.0000
     atom:   17    charge:    3.1925    magn:    1.4064    constr:    0.0000
     atom:   18    charge:    3.2408    magn:    1.3603    constr:    0.0000
     atom:   19    charge:    3.2407    magn:    1.3620    constr:    0.0000
     atom:   20    charge:    3.1919    magn:    1.4063    constr:    0.0000
     atom:   21    charge:    3.1919    magn:    1.4066    constr:    0.0000
     atom:   22    charge:    3.2408    magn:    1.3603    constr:    0.0000
     atom:   23    charge:    3.2407    magn:    1.3608    constr:    0.0000
     atom:   24    charge:    3.1919    magn:    1.4063    constr:    0.0000
     atom:   25    charge:    3.1919    magn:    1.4063    constr:    0.0000
     atom:   26    charge:    3.2408    magn:    1.3603    constr:    0.0000
     atom:   27    charge:    3.2408    magn:    1.3604    constr:    0.0000
     atom:   28    charge:    3.1919    magn:    1.4063    constr:    0.0000
     atom:   29    charge:    3.1919    magn:    1.4063    constr:    0.0000
     atom:   30    charge:    3.2409    magn:    1.3604    constr:    0.0000
     atom:   31    charge:    3.2408    magn:    1.3604    constr:    0.0000
     atom:   32    charge:    3.1916    magn:    1.4063    constr:    0.0000
     atom:   33    charge:    3.1921    magn:    1.4059    constr:    0.0000
     atom:   34    charge:    3.2408    magn:    1.3603    constr:    0.0000
     atom:   35    charge:    3.2408    magn:    1.3604    constr:    0.0000
     atom:   36    charge:    3.1919    magn:    1.4063    constr:    0.0000
     atom:   37    charge:    0.5629    magn:    0.5360    constr:    0.0000

     total cpu time spent up to now is      175.9 secs

     total energy              =   -2892.39332286 Ry
     Harris-Foulkes estimate   =   -2894.89130479 Ry
     estimated scf accuracy    <      18.26576477 Ry

     total magnetization       =    76.60 Bohr mag/cell
     absolute magnetization    =    76.62 Bohr mag/cell

     iteration #  2     ecut=    44.10 Ry     beta=0.10
     Davidson diagonalization with overlap
     ethr =  5.57E-03,  avg # of iterations =  1.1

     negative rho (up, down):  3.102E-03 1.962E-03
 
     Adding external electric field

     Computed dipole along edir(3) : 
        Dipole                0.0872 Ry au,          0.2217 Debye
        Dipole field          0.0001 Ry au
 
        Potential amp.       -0.0074 Ry
        Total length         34.6232 bohr
 
 
     Adding external electric field

     Computed dipole along edir(3) : 
        Dipole                0.0872 Ry au,          0.2217 Debye
        Dipole field          0.0001 Ry au
 
        Potential amp.       -0.0074 Ry
        Total length         34.6232 bohr
 
 
     Magnetic moment per site:
     atom:    1    charge:    3.2197    magn:    1.3741    constr:    0.0000
     atom:    2    charge:    3.2166    magn:    1.3632    constr:    0.0000
     atom:    3    charge:    3.2163    magn:    1.3660    constr:    0.0000
     atom:    4    charge:    3.2169    magn:    1.3691    constr:    0.0000
     atom:    5    charge:    3.2197    magn:    1.3738    constr:    0.0000
     atom:    6    charge:    3.2166    magn:    1.3632    constr:    0.0000
     atom:    7    charge:    3.2170    magn:    1.3640    constr:    0.0000
     atom:    8    charge:    3.2169    magn:    1.3692    constr:    0.0000
     atom:    9    charge:    3.2197    magn:    1.3738    constr:    0.0000
     atom:   10    charge:    3.2184    magn:    1.3631    constr:    0.0000
     atom:   11    charge:    3.2170    magn:    1.3640    constr:    0.0000
     atom:   12    charge:    3.2145    magn:    1.3793    constr:    0.0000
     atom:   13    charge:    3.2197    magn:    1.3738    constr:    0.0000
     atom:   14    charge:    3.2207    magn:    1.3610    constr:    0.0000
     atom:   15    charge:    3.2170    magn:    1.3640    constr:    0.0000
     atom:   16    charge:    3.2175    magn:    1.3751    constr:    0.0000
     atom:   17    charge:    3.2197    magn:    1.3741    constr:    0.0000
     atom:   18    charge:    3.2203    magn:    1.3611    constr:    0.0000
     atom:   19    charge:    3.2163    magn:    1.3661    constr:    0.0000
     atom:   20    charge:    3.2174    magn:    1.3755    constr:    0.0000
     atom:   21    charge:    3.2197    magn:    1.3738    constr:    0.0000
     atom:   22    charge:    3.2203    magn:    1.3611    constr:    0.0000
     atom:   23    charge:    3.2170    magn:    1.3640    constr:    0.0000
     atom:   24    charge:    3.2174    magn:    1.3755    constr:    0.0000
     atom:   25    charge:    3.2205    magn:    1.3726    constr:    0.0000
     atom:   26    charge:    3.2203    magn:    1.3611    constr:    0.0000
     atom:   27    charge:    3.2198    magn:    1.3618    constr:    0.0000
     atom:   28    charge:    3.2174    magn:    1.3755    constr:    0.0000
     atom:   29    charge:    3.2205    magn:    1.3726    constr:    0.0000
     atom:   30    charge:    3.2207    magn:    1.3610    constr:    0.0000
     atom:   31    charge:    3.2198    magn:    1.3618    constr:    0.0000
     atom:   32    charge:    3.2175    magn:    1.3751    constr:    0.0000
     atom:   33    charge:    3.2206    magn:    1.3725    constr:    0.0000
     atom:   34    charge:    3.2203    magn:    1.3611    constr:    0.0000
     atom:   35    charge:    3.2195    magn:    1.3619    constr:    0.0000
     atom:   36    charge:    3.2174    magn:    1.3755    constr:    0.0000
     atom:   37    charge:    0.5668    magn:    0.5316    constr:    0.0000

     total cpu time spent up to now is      262.6 secs

     total energy              =   -2892.91768370 Ry
     Harris-Foulkes estimate   =   -2896.41627679 Ry
     estimated scf accuracy    <      62.44150906 Ry

     total magnetization       =    77.18 Bohr mag/cell
     absolute magnetization    =    77.22 Bohr mag/cell

     iteration #  3     ecut=    44.10 Ry     beta=0.10
     Davidson diagonalization with overlap
     ethr =  5.57E-03,  avg # of iterations =  1.0

     negative rho (up, down):  3.874E-03 2.662E-03
 
     Adding external electric field

     Computed dipole along edir(3) : 
        Dipole               -0.8631 Ry au,         -2.1938 Debye
        Dipole field         -0.0011 Ry au
 
        Potential amp.        0.0728 Ry
        Total length         34.6232 bohr
 
 
     Adding external electric field

     Computed dipole along edir(3) : 
        Dipole               -0.8631 Ry au,         -2.1938 Debye
        Dipole field         -0.0011 Ry au
 
        Potential amp.        0.0728 Ry
        Total length         34.6232 bohr
 
 
     Magnetic moment per site:
     atom:    1    charge:    3.2202    magn:    1.3607    constr:    0.0000
     atom:    2    charge:    3.2159    magn:    1.3456    constr:    0.0000
     atom:    3    charge:    3.2159    magn:    1.3491    constr:    0.0000
     atom:    4    charge:    3.2243    magn:    1.3470    constr:    0.0000
     atom:    5    charge:    3.2204    magn:    1.3602    constr:    0.0000
     atom:    6    charge:    3.2159    magn:    1.3456    constr:    0.0000
     atom:    7    charge:    3.2166    magn:    1.3464    constr:    0.0000
     atom:    8    charge:    3.2243    magn:    1.3470    constr:    0.0000
     atom:    9    charge:    3.2204    magn:    1.3602    constr:    0.0000
     atom:   10    charge:    3.2162    magn:    1.3470    constr:    0.0000
     atom:   11    charge:    3.2166    magn:    1.3464    constr:    0.0000
     atom:   12    charge:    3.2270    magn:    1.3555    constr:    0.0000
     atom:   13    charge:    3.2204    magn:    1.3602    constr:    0.0000
     atom:   14    charge:    3.2137    magn:    1.3485    constr:    0.0000
     atom:   15    charge:    3.2166    magn:    1.3464    constr:    0.0000
     atom:   16    charge:    3.2255    magn:    1.3548    constr:    0.0000
     atom:   17    charge:    3.2202    magn:    1.3607    constr:    0.0000
     atom:   18    charge:    3.2137    magn:    1.3483    constr:    0.0000
     atom:   19    charge:    3.2159    magn:    1.3491    constr:    0.0000
     atom:   20    charge:    3.2253    magn:    1.3554    constr:    0.0000
     atom:   21    charge:    3.2204    magn:    1.3602    constr:    0.0000
     atom:   22    charge:    3.2137    magn:    1.3483    constr:    0.0000
     atom:   23    charge:    3.2166    magn:    1.3464    constr:    0.0000
     atom:   24    charge:    3.2254    magn:    1.3554    constr:    0.0000
     atom:   25    charge:    3.2178    magn:    1.3621    constr:    0.0000
     atom:   26    charge:    3.2137    magn:    1.3483    constr:    0.0000
     atom:   27    charge:    3.2143    magn:    1.3482    constr:    0.0000
     atom:   28    charge:    3.2254    magn:    1.3554    constr:    0.0000
     atom:   29    charge:    3.2178    magn:    1.3621    constr:    0.0000
     atom:   30    charge:    3.2137    magn:    1.3486    constr:    0.0000
     atom:   31    charge:    3.2143    magn:    1.3482    constr:    0.0000
     atom:   32    charge:    3.2255    magn:    1.3549    constr:    0.0000
     atom:   33    charge:    3.2178    magn:    1.3618    constr:    0.0000
     atom:   34    charge:    3.2137    magn:    1.3483    constr:    0.0000
     atom:   35    charge:    3.2146    magn:    1.3478    constr:    0.0000
     atom:   36    charge:    3.2253    magn:    1.3554    constr:    0.0000
     atom:   37    charge:    0.5717    magn:    0.5253    constr:    0.0000

     total cpu time spent up to now is      348.4 secs

     total energy              =   -2894.28696514 Ry
     Harris-Foulkes estimate   =   -2894.51319642 Ry
     estimated scf accuracy    <       5.64111801 Ry

     total magnetization       =    78.05 Bohr mag/cell
     absolute magnetization    =    78.08 Bohr mag/cell

     iteration #  4     ecut=    44.10 Ry     beta=0.10
     Davidson diagonalization with overlap
     ethr =  1.72E-03,  avg # of iterations =  3.1

     negative rho (up, down):  3.026E-03 2.562E-03
 
     Adding external electric field

     Computed dipole along edir(3) : 
        Dipole               -0.1236 Ry au,         -0.3141 Debye
        Dipole field         -0.0002 Ry au
 
        Potential amp.        0.0104 Ry
        Total length         34.6232 bohr
 
 
     Adding external electric field

     Computed dipole along edir(3) : 
        Dipole               -0.1236 Ry au,         -0.3141 Debye
        Dipole field         -0.0002 Ry au
 
        Potential amp.        0.0104 Ry
        Total length         34.6232 bohr
 
 
     Magnetic moment per site:
     atom:    1    charge:    3.2351    magn:    1.3031    constr:    0.0000
     atom:    2    charge:    3.2129    magn:    1.2876    constr:    0.0000
     atom:    3    charge:    3.2105    magn:    1.2963    constr:    0.0000
     atom:    4    charge:    3.2199    magn:    1.2949    constr:    0.0000
     atom:    5    charge:    3.2360    magn:    1.3019    constr:    0.0000
     atom:    6    charge:    3.2129    magn:    1.2876    constr:    0.0000
     atom:    7    charge:    3.2108    magn:    1.2916    constr:    0.0000
     atom:    8    charge:    3.2199    magn:    1.2949    constr:    0.0000
     atom:    9    charge:    3.2360    magn:    1.3019    constr:    0.0000
     atom:   10    charge:    3.2111    magn:    1.2919    constr:    0.0000
     atom:   11    charge:    3.2108    magn:    1.2916    constr:    0.0000
     atom:   12    charge:    3.2339    magn:    1.3058    constr:    0.0000
     atom:   13    charge:    3.2359    magn:    1.3019    constr:    0.0000
     atom:   14    charge:    3.2040    magn:    1.2965    constr:    0.0000
     atom:   15    charge:    3.2108    magn:    1.2916    constr:    0.0000
     atom:   16    charge:    3.2287    magn:    1.3070    constr:    0.0000
     atom:   17    charge:    3.2351    magn:    1.3031    constr:    0.0000
     atom:   18    charge:    3.2049    magn:    1.2955    constr:    0.0000
     atom:   19    charge:    3.2105    magn:    1.2963    constr:    0.0000
     atom:   20    charge:    3.2284    magn:    1.3081    constr:    0.0000
     atom:   21    charge:    3.2360    magn:    1.3019    constr:    0.0000
     atom:   22    charge:    3.2049    magn:    1.2955    constr:    0.0000
     atom:   23    charge:    3.2108    magn:    1.2917    constr:    0.0000
     atom:   24    charge:    3.2284    magn:    1.3081    constr:    0.0000
     atom:   25    charge:    3.2334    magn:    1.3038    constr:    0.0000
     atom:   26    charge:    3.2049    magn:    1.2955    constr:    0.0000
     atom:   27    charge:    3.2031    magn:    1.2980    constr:    0.0000
     atom:   28    charge:    3.2284    magn:    1.3081    constr:    0.0000
     atom:   29    charge:    3.2334    magn:    1.3038    constr:    0.0000
     atom:   30    charge:    3.2040    magn:    1.2965    constr:    0.0000
     atom:   31    charge:    3.2031    magn:    1.2980    constr:    0.0000
     atom:   32    charge:    3.2287    magn:    1.3070    constr:    0.0000
     atom:   33    charge:    3.2334    magn:    1.3033    constr:    0.0000
     atom:   34    charge:    3.2049    magn:    1.2955    constr:    0.0000
     atom:   35    charge:    3.2042    magn:    1.2966    constr:    0.0000
     atom:   36    charge:    3.2284    magn:    1.3081    constr:    0.0000
     atom:   37    charge:    0.5850    magn:    0.5037    constr:    0.0000

     total cpu time spent up to now is      442.7 secs

     total energy              =   -2894.35761292 Ry
     Harris-Foulkes estimate   =   -2894.81344771 Ry
     estimated scf accuracy    <      27.78028065 Ry

     total magnetization       =    77.72 Bohr mag/cell
     absolute magnetization    =    77.76 Bohr mag/cell

     iteration #  5     ecut=    44.10 Ry     beta=0.10
     Davidson diagonalization with overlap
     ethr =  1.72E-03,  avg # of iterations =  4.3

     negative rho (up, down):  3.309E-03 2.975E-03
 
     Adding external electric field

     Computed dipole along edir(3) : 
        Dipole               -0.4125 Ry au,         -1.0484 Debye
        Dipole field         -0.0005 Ry au
 
        Potential amp.        0.0348 Ry
        Total length         34.6232 bohr
 
 
     Adding external electric field

     Computed dipole along edir(3) : 
        Dipole               -0.4125 Ry au,         -1.0484 Debye
        Dipole field         -0.0005 Ry au
 
        Potential amp.        0.0348 Ry
        Total length         34.6232 bohr
 
 
     Magnetic moment per site:
     atom:    1    charge:    3.2331    magn:    1.2871    constr:    0.0000
     atom:    2    charge:    3.2051    magn:    1.2712    constr:    0.0000
     atom:    3    charge:    3.2058    magn:    1.2790    constr:    0.0000
     atom:    4    charge:    3.2173    magn:    1.2759    constr:    0.0000
     atom:    5    charge:    3.2340    magn:    1.2857    constr:    0.0000
     atom:    6    charge:    3.2051    magn:    1.2712    constr:    0.0000
     atom:    7    charge:    3.2061    magn:    1.2733    constr:    0.0000
     atom:    8    charge:    3.2173    magn:    1.2759    constr:    0.0000
     atom:    9    charge:    3.2340    magn:    1.2857    constr:    0.0000
     atom:   10    charge:    3.2049    magn:    1.2749    constr:    0.0000
     atom:   11    charge:    3.2061    magn:    1.2733    constr:    0.0000
     atom:   12    charge:    3.2301    magn:    1.2919    constr:    0.0000
     atom:   13    charge:    3.2340    magn:    1.2857    constr:    0.0000
     atom:   14    charge:    3.2052    magn:    1.2736    constr:    0.0000
     atom:   15    charge:    3.2061    magn:    1.2733    constr:    0.0000
     atom:   16    charge:    3.2336    magn:    1.2848    constr:    0.0000
     atom:   17    charge:    3.2331    magn:    1.2871    constr:    0.0000
     atom:   18    charge:    3.2055    magn:    1.2731    constr:    0.0000
     atom:   19    charge:    3.2058    magn:    1.2790    constr:    0.0000
     atom:   20    charge:    3.2334    magn:    1.2861    constr:    0.0000
     atom:   21    charge:    3.2340    magn:    1.2857    constr:    0.0000
     atom:   22    charge:    3.2055    magn:    1.2730    constr:    0.0000
     atom:   23    charge:    3.2061    magn:    1.2734    constr:    0.0000
     atom:   24    charge:    3.2334    magn:    1.2861    constr:    0.0000
     atom:   25    charge:    3.2375    magn:    1.2823    constr:    0.0000
     atom:   26    charge:    3.2055    magn:    1.2731    constr:    0.0000
     atom:   27    charge:    3.2062    magn:    1.2737    constr:    0.0000
     atom:   28    charge:    3.2334    magn:    1.2861    constr:    0.0000
     atom:   29    charge:    3.2375    magn:    1.2823    constr:    0.0000
     atom:   30    charge:    3.2052    magn:    1.2736    constr:    0.0000
     atom:   31    charge:    3.2062    magn:    1.2737    constr:    0.0000
     atom:   32    charge:    3.2336    magn:    1.2848    constr:    0.0000
     atom:   33    charge:    3.2374    magn:    1.2819    constr:    0.0000
     atom:   34    charge:    3.2055    magn:    1.2731    constr:    0.0000
     atom:   35    charge:    3.2069    magn:    1.2725    constr:    0.0000
     atom:   36    charge:    3.2334    magn:    1.2861    constr:    0.0000
     atom:   37    charge:    0.5896    magn:    0.4949    constr:    0.0000

     total cpu time spent up to now is      542.7 secs

     total energy              =   -2894.73298900 Ry
     Harris-Foulkes estimate   =   -2894.93506559 Ry
     estimated scf accuracy    <      10.19297044 Ry

     total magnetization       =    77.86 Bohr mag/cell
     absolute magnetization    =    77.98 Bohr mag/cell

     iteration #  6     ecut=    44.10 Ry     beta=0.10
     Davidson diagonalization with overlap
     ethr =  1.72E-03,  avg # of iterations =  2.6

     negative rho (up, down):  3.310E-03 3.250E-03
 
     Adding external electric field

     Computed dipole along edir(3) : 
        Dipole               -0.4368 Ry au,         -1.1102 Debye
        Dipole field         -0.0005 Ry au
 
        Potential amp.        0.0369 Ry
        Total length         34.6232 bohr
 
 
     Adding external electric field

     Computed dipole along edir(3) : 
        Dipole               -0.4368 Ry au,         -1.1102 Debye
        Dipole field         -0.0005 Ry au
 
        Potential amp.        0.0369 Ry
        Total length         34.6232 bohr
 
 
     Magnetic moment per site:
     atom:    1    charge:    3.2320    magn:    1.2624    constr:    0.0000
     atom:    2    charge:    3.2017    magn:    1.2458    constr:    0.0000
     atom:    3    charge:    3.2011    magn:    1.2565    constr:    0.0000
     atom:    4    charge:    3.2199    magn:    1.2449    constr:    0.0000
     atom:    5    charge:    3.2324    magn:    1.2613    constr:    0.0000
     atom:    6    charge:    3.2017    magn:    1.2458    constr:    0.0000
     atom:    7    charge:    3.2018    magn:    1.2493    constr:    0.0000
     atom:    8    charge:    3.2199    magn:    1.2449    constr:    0.0000
     atom:    9    charge:    3.2324    magn:    1.2613    constr:    0.0000
     atom:   10    charge:    3.2047    magn:    1.2477    constr:    0.0000
     atom:   11    charge:    3.2018    magn:    1.2493    constr:    0.0000
     atom:   12    charge:    3.2281    magn:    1.2693    constr:    0.0000
     atom:   13    charge:    3.2324    magn:    1.2613    constr:    0.0000
     atom:   14    charge:    3.2069    magn:    1.2448    constr:    0.0000
     atom:   15    charge:    3.2018    magn:    1.2493    constr:    0.0000
     atom:   16    charge:    3.2288    magn:    1.2629    constr:    0.0000
     atom:   17    charge:    3.2320    magn:    1.2624    constr:    0.0000
     atom:   18    charge:    3.2059    magn:    1.2452    constr:    0.0000
     atom:   19    charge:    3.2011    magn:    1.2565    constr:    0.0000
     atom:   20    charge:    3.2288    magn:    1.2644    constr:    0.0000
     atom:   21    charge:    3.2324    magn:    1.2613    constr:    0.0000
     atom:   22    charge:    3.2059    magn:    1.2451    constr:    0.0000
     atom:   23    charge:    3.2018    magn:    1.2493    constr:    0.0000
     atom:   24    charge:    3.2288    magn:    1.2644    constr:    0.0000
     atom:   25    charge:    3.2280    magn:    1.2640    constr:    0.0000
     atom:   26    charge:    3.2059    magn:    1.2452    constr:    0.0000
     atom:   27    charge:    3.2053    magn:    1.2471    constr:    0.0000
     atom:   28    charge:    3.2288    magn:    1.2644    constr:    0.0000
     atom:   29    charge:    3.2280    magn:    1.2640    constr:    0.0000
     atom:   30    charge:    3.2069    magn:    1.2448    constr:    0.0000
     atom:   31    charge:    3.2053    magn:    1.2470    constr:    0.0000
     atom:   32    charge:    3.2288    magn:    1.2629    constr:    0.0000
     atom:   33    charge:    3.2284    magn:    1.2632    constr:    0.0000
     atom:   34    charge:    3.2059    magn:    1.2452    constr:    0.0000
     atom:   35    charge:    3.2046    magn:    1.2465    constr:    0.0000
     atom:   36    charge:    3.2288    magn:    1.2644    constr:    0.0000
     atom:   37    charge:    0.5942    magn:    0.4812    constr:    0.0000

     total cpu time spent up to now is      634.8 secs

     total energy              =   -2895.05139176 Ry
     Harris-Foulkes estimate   =   -2894.93531556 Ry
     estimated scf accuracy    <       1.38259260 Ry

     total magnetization       =    77.73 Bohr mag/cell
     absolute magnetization    =    77.92 Bohr mag/cell

     iteration #  7     ecut=    44.10 Ry     beta=0.10
     Davidson diagonalization with overlap
     ethr =  4.22E-04,  avg # of iterations =  8.2

     negative rho (up, down):  2.960E-03 3.535E-03
 
     Adding external electric field

     Computed dipole along edir(3) : 
        Dipole               -0.4548 Ry au,         -1.1559 Debye
        Dipole field         -0.0006 Ry au
 
        Potential amp.        0.0384 Ry
        Total length         34.6232 bohr
 
 
     Adding external electric field

     Computed dipole along edir(3) : 
        Dipole               -0.4548 Ry au,         -1.1559 Debye
        Dipole field         -0.0006 Ry au
 
        Potential amp.        0.0384 Ry
        Total length         34.6232 bohr
 
 
     Magnetic moment per site:
     atom:    1    charge:    3.2245    magn:    1.2294    constr:    0.0000
     atom:    2    charge:    3.2012    magn:    1.2047    constr:    0.0000
     atom:    3    charge:    3.2016    magn:    1.2172    constr:    0.0000
     atom:    4    charge:    3.2099    magn:    1.2073    constr:    0.0000
     atom:    5    charge:    3.2244    magn:    1.2284    constr:    0.0000
     atom:    6    charge:    3.2012    magn:    1.2047    constr:    0.0000
     atom:    7    charge:    3.2016    magn:    1.2089    constr:    0.0000
     atom:    8    charge:    3.2099    magn:    1.2073    constr:    0.0000
     atom:    9    charge:    3.2244    magn:    1.2285    constr:    0.0000
     atom:   10    charge:    3.2031    magn:    1.2079    constr:    0.0000
     atom:   11    charge:    3.2016    magn:    1.2089    constr:    0.0000
     atom:   12    charge:    3.2261    magn:    1.2344    constr:    0.0000
     atom:   13    charge:    3.2244    magn:    1.2284    constr:    0.0000
     atom:   14    charge:    3.2018    magn:    1.2076    constr:    0.0000
     atom:   15    charge:    3.2016    magn:    1.2089    constr:    0.0000
     atom:   16    charge:    3.2251    magn:    1.2267    constr:    0.0000
     atom:   17    charge:    3.2245    magn:    1.2293    constr:    0.0000
     atom:   18    charge:    3.2019    magn:    1.2071    constr:    0.0000
     atom:   19    charge:    3.2016    magn:    1.2172    constr:    0.0000
     atom:   20    charge:    3.2252    magn:    1.2287    constr:    0.0000
     atom:   21    charge:    3.2244    magn:    1.2284    constr:    0.0000
     atom:   22    charge:    3.2019    magn:    1.2071    constr:    0.0000
     atom:   23    charge:    3.2016    magn:    1.2089    constr:    0.0000
     atom:   24    charge:    3.2252    magn:    1.2287    constr:    0.0000
     atom:   25    charge:    3.2254    magn:    1.2264    constr:    0.0000
     atom:   26    charge:    3.2019    magn:    1.2071    constr:    0.0000
     atom:   27    charge:    3.2006    magn:    1.2100    constr:    0.0000
     atom:   28    charge:    3.2252    magn:    1.2287    constr:    0.0000
     atom:   29    charge:    3.2254    magn:    1.2264    constr:    0.0000
     atom:   30    charge:    3.2018    magn:    1.2076    constr:    0.0000
     atom:   31    charge:    3.2006    magn:    1.2100    constr:    0.0000
     atom:   32    charge:    3.2251    magn:    1.2267    constr:    0.0000
     atom:   33    charge:    3.2261    magn:    1.2255    constr:    0.0000
     atom:   34    charge:    3.2018    magn:    1.2071    constr:    0.0000
     atom:   35    charge:    3.2007    magn:    1.2081    constr:    0.0000
     atom:   36    charge:    3.2252    magn:    1.2287    constr:    0.0000
     atom:   37    charge:    0.5980    magn:    0.4585    constr:    0.0000

     total cpu time spent up to now is      755.9 secs

     total energy              =   -2895.29138019 Ry
     Harris-Foulkes estimate   =   -2895.09885598 Ry
     estimated scf accuracy    <       1.01820635 Ry

     total magnetization       =    76.58 Bohr mag/cell
     absolute magnetization    =    76.88 Bohr mag/cell

     iteration #  8     ecut=    44.10 Ry     beta=0.10
     Davidson diagonalization with overlap
     ethr =  3.10E-04,  avg # of iterations =  1.5

     negative rho (up, down):  3.065E-03 4.020E-03
 
     Adding external electric field

     Computed dipole along edir(3) : 
        Dipole               -0.3800 Ry au,         -0.9657 Debye
        Dipole field         -0.0005 Ry au
 
        Potential amp.        0.0321 Ry
        Total length         34.6232 bohr
 
 
     Adding external electric field

     Computed dipole along edir(3) : 
        Dipole               -0.3800 Ry au,         -0.9657 Debye
        Dipole field         -0.0005 Ry au
 
        Potential amp.        0.0321 Ry
        Total length         34.6232 bohr
 
 
     Magnetic moment per site:
     atom:    1    charge:    3.2228    magn:    1.1907    constr:    0.0000
     atom:    2    charge:    3.1983    magn:    1.1632    constr:    0.0000
     atom:    3    charge:    3.2012    magn:    1.1764    constr:    0.0000
     atom:    4    charge:    3.2078    magn:    1.1601    constr:    0.0000
     atom:    5    charge:    3.2246    magn:    1.1879    constr:    0.0000
     atom:    6    charge:    3.1983    magn:    1.1632    constr:    0.0000
     atom:    7    charge:    3.1994    magn:    1.1679    constr:    0.0000
     atom:    8    charge:    3.2078    magn:    1.1601    constr:    0.0000
     atom:    9    charge:    3.2246    magn:    1.1878    constr:    0.0000
     atom:   10    charge:    3.1965    magn:    1.1695    constr:    0.0000
     atom:   11    charge:    3.1994    magn:    1.1679    constr:    0.0000
     atom:   12    charge:    3.2198    magn:    1.2021    constr:    0.0000
     atom:   13    charge:    3.2246    magn:    1.1878    constr:    0.0000
     atom:   14    charge:    3.1969    magn:    1.1681    constr:    0.0000
     atom:   15    charge:    3.1994    magn:    1.1679    constr:    0.0000
     atom:   16    charge:    3.2242    magn:    1.1871    constr:    0.0000
     atom:   17    charge:    3.2228    magn:    1.1907    constr:    0.0000
     atom:   18    charge:    3.1970    magn:    1.1678    constr:    0.0000
     atom:   19    charge:    3.2012    magn:    1.1764    constr:    0.0000
     atom:   20    charge:    3.2253    magn:    1.1888    constr:    0.0000
     atom:   21    charge:    3.2246    magn:    1.1879    constr:    0.0000
     atom:   22    charge:    3.1970    magn:    1.1678    constr:    0.0000
     atom:   23    charge:    3.1994    magn:    1.1680    constr:    0.0000
     atom:   24    charge:    3.2253    magn:    1.1888    constr:    0.0000
     atom:   25    charge:    3.2223    magn:    1.1884    constr:    0.0000
     atom:   26    charge:    3.1970    magn:    1.1678    constr:    0.0000
     atom:   27    charge:    3.1999    magn:    1.1681    constr:    0.0000
     atom:   28    charge:    3.2253    magn:    1.1887    constr:    0.0000
     atom:   29    charge:    3.2223    magn:    1.1884    constr:    0.0000
     atom:   30    charge:    3.1969    magn:    1.1681    constr:    0.0000
     atom:   31    charge:    3.1999    magn:    1.1681    constr:    0.0000
     atom:   32    charge:    3.2243    magn:    1.1871    constr:    0.0000
     atom:   33    charge:    3.2214    magn:    1.1890    constr:    0.0000
     atom:   34    charge:    3.1970    magn:    1.1678    constr:    0.0000
     atom:   35    charge:    3.2006    magn:    1.1648    constr:    0.0000
     atom:   36    charge:    3.2253    magn:    1.1888    constr:    0.0000
     atom:   37    charge:    0.5981    magn:    0.4310    constr:    0.0000

     total cpu time spent up to now is      843.3 secs

     total energy              =   -2895.51682976 Ry
     Harris-Foulkes estimate   =   -2895.31847591 Ry
     estimated scf accuracy    <       0.54884936 Ry

     total magnetization       =    75.03 Bohr mag/cell
     absolute magnetization    =    75.57 Bohr mag/cell

     iteration #  9     ecut=    44.10 Ry     beta=0.10
     Davidson diagonalization with overlap
     ethr =  1.67E-04,  avg # of iterations =  2.7

     negative rho (up, down):  6.438E-03 5.653E-03
 
     Adding external electric field

     Computed dipole along edir(3) : 
        Dipole               -0.2494 Ry au,         -0.6339 Debye
        Dipole field         -0.0003 Ry au
 
        Potential amp.        0.0210 Ry
        Total length         34.6232 bohr
 
 
     Adding external electric field

     Computed dipole along edir(3) : 
        Dipole               -0.2494 Ry au,         -0.6339 Debye
        Dipole field         -0.0003 Ry au
 
        Potential amp.        0.0210 Ry
        Total length         34.6232 bohr
 
 
     Magnetic moment per site:
     atom:    1    charge:    3.2190    magn:    1.1097    constr:    0.0000
     atom:    2    charge:    3.1920    magn:    1.0759    constr:    0.0000
     atom:    3    charge:    3.1968    magn:    1.0931    constr:    0.0000
     atom:    4    charge:    3.2068    magn:    1.0559    constr:    0.0000
     atom:    5    charge:    3.2195    magn:    1.1069    constr:    0.0000
     atom:    6    charge:    3.1920    magn:    1.0759    constr:    0.0000
     atom:    7    charge:    3.1955    magn:    1.0815    constr:    0.0000
     atom:    8    charge:    3.2068    magn:    1.0559    constr:    0.0000
     atom:    9    charge:    3.2195    magn:    1.1069    constr:    0.0000
     atom:   10    charge:    3.1897    magn:    1.0840    constr:    0.0000
     atom:   11    charge:    3.1955    magn:    1.0815    constr:    0.0000
     atom:   12    charge:    3.2257    magn:    1.1179    constr:    0.0000
     atom:   13    charge:    3.2195    magn:    1.1069    constr:    0.0000
     atom:   14    charge:    3.1925    magn:    1.0811    constr:    0.0000
     atom:   15    charge:    3.1955    magn:    1.0815    constr:    0.0000
     atom:   16    charge:    3.2219    magn:    1.1040    constr:    0.0000
     atom:   17    charge:    3.2190    magn:    1.1097    constr:    0.0000
     atom:   18    charge:    3.1924    magn:    1.0814    constr:    0.0000
     atom:   19    charge:    3.1968    magn:    1.0931    constr:    0.0000
     atom:   20    charge:    3.2219    magn:    1.1072    constr:    0.0000
     atom:   21    charge:    3.2195    magn:    1.1069    constr:    0.0000
     atom:   22    charge:    3.1924    magn:    1.0814    constr:    0.0000
     atom:   23    charge:    3.1955    magn:    1.0815    constr:    0.0000
     atom:   24    charge:    3.2219    magn:    1.1072    constr:    0.0000
     atom:   25    charge:    3.2209    magn:    1.1044    constr:    0.0000
     atom:   26    charge:    3.1924    magn:    1.0814    constr:    0.0000
     atom:   27    charge:    3.1954    magn:    1.0823    constr:    0.0000
     atom:   28    charge:    3.2219    magn:    1.1072    constr:    0.0000
     atom:   29    charge:    3.2209    magn:    1.1044    constr:    0.0000
     atom:   30    charge:    3.1925    magn:    1.0811    constr:    0.0000
     atom:   31    charge:    3.1954    magn:    1.0823    constr:    0.0000
     atom:   32    charge:    3.2219    magn:    1.1040    constr:    0.0000
     atom:   33    charge:    3.2214    magn:    1.1042    constr:    0.0000
     atom:   34    charge:    3.1924    magn:    1.0814    constr:    0.0000
     atom:   35    charge:    3.1953    magn:    1.0775    constr:    0.0000
     atom:   36    charge:    3.2219    magn:    1.1072    constr:    0.0000
     atom:   37    charge:    0.5960    magn:    0.3697    constr:    0.0000

     total cpu time spent up to now is      936.2 secs

     total energy              =   -2895.84631922 Ry
     Harris-Foulkes estimate   =   -2895.54071465 Ry
     estimated scf accuracy    <       0.58237164 Ry

     total magnetization       =    73.77 Bohr mag/cell
     absolute magnetization    =    74.74 Bohr mag/cell

     iteration # 10     ecut=    44.10 Ry     beta=0.10
     Davidson diagonalization with overlap
     ethr =  1.67E-04,  avg # of iterations =  5.0

     negative rho (up, down):  9.258E-03 7.174E-03
 
     Adding external electric field

     Computed dipole along edir(3) : 
        Dipole               -0.2228 Ry au,         -0.5662 Debye
        Dipole field         -0.0003 Ry au
 
        Potential amp.        0.0188 Ry
        Total length         34.6232 bohr
 
 
     Adding external electric field

     Computed dipole along edir(3) : 
        Dipole               -0.2228 Ry au,         -0.5662 Debye
        Dipole field         -0.0003 Ry au
 
        Potential amp.        0.0188 Ry
        Total length         34.6232 bohr
 
 
     Magnetic moment per site:
     atom:    1    charge:    3.2174    magn:    1.0580    constr:    0.0000
     atom:    2    charge:    3.1937    magn:    1.0168    constr:    0.0000
     atom:    3    charge:    3.1962    magn:    1.0392    constr:    0.0000
     atom:    4    charge:    3.2025    magn:    0.9887    constr:    0.0000
     atom:    5    charge:    3.2169    magn:    1.0554    constr:    0.0000
     atom:    6    charge:    3.1937    magn:    1.0168    constr:    0.0000
     atom:    7    charge:    3.1940    magn:    1.0269    constr:    0.0000
     atom:    8    charge:    3.2025    magn:    0.9888    constr:    0.0000
     atom:    9    charge:    3.2169    magn:    1.0554    constr:    0.0000
     atom:   10    charge:    3.1938    magn:    1.0245    constr:    0.0000
     atom:   11    charge:    3.1940    magn:    1.0269    constr:    0.0000
     atom:   12    charge:    3.2222    magn:    1.0702    constr:    0.0000
     atom:   13    charge:    3.2169    magn:    1.0554    constr:    0.0000
     atom:   14    charge:    3.1931    magn:    1.0245    constr:    0.0000
     atom:   15    charge:    3.1940    magn:    1.0269    constr:    0.0000
     atom:   16    charge:    3.2202    magn:    1.0514    constr:    0.0000
     atom:   17    charge:    3.2174    magn:    1.0580    constr:    0.0000
     atom:   18    charge:    3.1930    magn:    1.0250    constr:    0.0000
     atom:   19    charge:    3.1962    magn:    1.0392    constr:    0.0000
     atom:   20    charge:    3.2223    magn:    1.0532    constr:    0.0000
     atom:   21    charge:    3.2169    magn:    1.0554    constr:    0.0000
     atom:   22    charge:    3.1930    magn:    1.0250    constr:    0.0000
     atom:   23    charge:    3.1940    magn:    1.0269    constr:    0.0000
     atom:   24    charge:    3.2223    magn:    1.0532    constr:    0.0000
     atom:   25    charge:    3.2169    magn:    1.0539    constr:    0.0000
     atom:   26    charge:    3.1930    magn:    1.0250    constr:    0.0000
     atom:   27    charge:    3.1932    magn:    1.0282    constr:    0.0000
     atom:   28    charge:    3.2223    magn:    1.0532    constr:    0.0000
     atom:   29    charge:    3.2169    magn:    1.0539    constr:    0.0000
     atom:   30    charge:    3.1931    magn:    1.0245    constr:    0.0000
     atom:   31    charge:    3.1932    magn:    1.0282    constr:    0.0000
     atom:   32    charge:    3.2202    magn:    1.0514    constr:    0.0000
     atom:   33    charge:    3.2175    magn:    1.0538    constr:    0.0000
     atom:   34    charge:    3.1930    magn:    1.0250    constr:    0.0000
     atom:   35    charge:    3.1933    magn:    1.0219    constr:    0.0000
     atom:   36    charge:    3.2223    magn:    1.0532    constr:    0.0000
     atom:   37    charge:    0.5914    magn:    0.3247    constr:    0.0000

     total cpu time spent up to now is     1040.3 secs

     total energy              =   -2896.02036675 Ry
     Harris-Foulkes estimate   =   -2895.90080775 Ry
     estimated scf accuracy    <       0.76707777 Ry

     total magnetization       =    70.88 Bohr mag/cell
     absolute magnetization    =    73.20 Bohr mag/cell

     iteration # 11     ecut=    44.10 Ry     beta=0.10
     Davidson diagonalization with overlap
     ethr =  1.67E-04,  avg # of iterations =  1.2

     negative rho (up, down):  9.026E-03 7.333E-03
 
     Adding external electric field

     Computed dipole along edir(3) : 
        Dipole               -0.2761 Ry au,         -0.7017 Debye
        Dipole field         -0.0003 Ry au
 
        Potential amp.        0.0233 Ry
        Total length         34.6232 bohr
 
 
     Adding external electric field

     Computed dipole along edir(3) : 
        Dipole               -0.2761 Ry au,         -0.7017 Debye
        Dipole field         -0.0003 Ry au
 
        Potential amp.        0.0233 Ry
        Total length         34.6232 bohr
 
 
     Magnetic moment per site:
     atom:    1    charge:    3.2161    magn:    1.0471    constr:    0.0000
     atom:    2    charge:    3.1956    magn:    1.0024    constr:    0.0000
     atom:    3    charge:    3.1986    magn:    1.0255    constr:    0.0000
     atom:    4    charge:    3.2027    magn:    0.9697    constr:    0.0000
     atom:    5    charge:    3.2164    magn:    1.0438    constr:    0.0000
     atom:    6    charge:    3.1956    magn:    1.0024    constr:    0.0000
     atom:    7    charge:    3.1958    magn:    1.0136    constr:    0.0000
     atom:    8    charge:    3.2027    magn:    0.9697    constr:    0.0000
     atom:    9    charge:    3.2164    magn:    1.0438    constr:    0.0000
     atom:   10    charge:    3.1950    magn:    1.0113    constr:    0.0000
     atom:   11    charge:    3.1958    magn:    1.0136    constr:    0.0000
     atom:   12    charge:    3.2203    magn:    1.0602    constr:    0.0000
     atom:   13    charge:    3.2164    magn:    1.0438    constr:    0.0000
     atom:   14    charge:    3.1950    magn:    1.0107    constr:    0.0000
     atom:   15    charge:    3.1958    magn:    1.0136    constr:    0.0000
     atom:   16    charge:    3.2189    magn:    1.0400    constr:    0.0000
     atom:   17    charge:    3.2161    magn:    1.0471    constr:    0.0000
     atom:   18    charge:    3.1949    magn:    1.0114    constr:    0.0000
     atom:   19    charge:    3.1986    magn:    1.0255    constr:    0.0000
     atom:   20    charge:    3.2201    magn:    1.0425    constr:    0.0000
     atom:   21    charge:    3.2164    magn:    1.0438    constr:    0.0000
     atom:   22    charge:    3.1949    magn:    1.0114    constr:    0.0000
     atom:   23    charge:    3.1958    magn:    1.0136    constr:    0.0000
     atom:   24    charge:    3.2201    magn:    1.0425    constr:    0.0000
     atom:   25    charge:    3.2168    magn:    1.0420    constr:    0.0000
     atom:   26    charge:    3.1949    magn:    1.0114    constr:    0.0000
     atom:   27    charge:    3.1955    magn:    1.0145    constr:    0.0000
     atom:   28    charge:    3.2201    magn:    1.0425    constr:    0.0000
     atom:   29    charge:    3.2168    magn:    1.0420    constr:    0.0000
     atom:   30    charge:    3.1950    magn:    1.0108    constr:    0.0000
     atom:   31    charge:    3.1955    magn:    1.0145    constr:    0.0000
     atom:   32    charge:    3.2189    magn:    1.0400    constr:    0.0000
     atom:   33    charge:    3.2164    magn:    1.0427    constr:    0.0000
     atom:   34    charge:    3.1949    magn:    1.0114    constr:    0.0000
     atom:   35    charge:    3.1954    magn:    1.0081    constr:    0.0000
     atom:   36    charge:    3.2201    magn:    1.0425    constr:    0.0000
     atom:   37    charge:    0.5884    magn:    0.3093    constr:    0.0000

     total cpu time spent up to now is     1127.0 secs

     total energy              =   -2896.05198943 Ry
     Harris-Foulkes estimate   =   -2896.04236553 Ry
     estimated scf accuracy    <       0.62339877 Ry

     total magnetization       =    68.77 Bohr mag/cell
     absolute magnetization    =    72.23 Bohr mag/cell

     iteration # 12     ecut=    44.10 Ry     beta=0.10
     Davidson diagonalization with overlap
     ethr =  1.67E-04,  avg # of iterations =  1.0

     negative rho (up, down):  8.075E-03 7.265E-03
 
     Adding external electric field

     Computed dipole along edir(3) : 
        Dipole               -0.3979 Ry au,         -1.0113 Debye
        Dipole field         -0.0005 Ry au
 
        Potential amp.        0.0336 Ry
        Total length         34.6232 bohr
 
 
     Adding external electric field

     Computed dipole along edir(3) : 
        Dipole               -0.3979 Ry au,         -1.0113 Debye
        Dipole field         -0.0005 Ry au
 
        Potential amp.        0.0336 Ry
        Total length         34.6232 bohr
 
 
     Magnetic moment per site:
     atom:    1    charge:    3.2178    magn:    1.0425    constr:    0.0000
     atom:    2    charge:    3.1998    magn:    0.9951    constr:    0.0000
     atom:    3    charge:    3.2017    magn:    1.0200    constr:    0.0000
     atom:    4    charge:    3.2002    magn:    0.9566    constr:    0.0000
     atom:    5    charge:    3.2163    magn:    1.0408    constr:    0.0000
     atom:    6    charge:    3.1998    magn:    0.9951    constr:    0.0000
     atom:    7    charge:    3.2007    magn:    1.0075    constr:    0.0000
     atom:    8    charge:    3.2002    magn:    0.9566    constr:    0.0000
     atom:    9    charge:    3.2163    magn:    1.0408    constr:    0.0000
     atom:   10    charge:    3.1990    magn:    1.0054    constr:    0.0000
     atom:   11    charge:    3.2007    magn:    1.0075    constr:    0.0000
     atom:   12    charge:    3.2199    magn:    1.0567    constr:    0.0000
     atom:   13    charge:    3.2162    magn:    1.0409    constr:    0.0000
     atom:   14    charge:    3.2000    magn:    1.0042    constr:    0.0000
     atom:   15    charge:    3.2006    magn:    1.0075    constr:    0.0000
     atom:   16    charge:    3.2163    magn:    1.0383    constr:    0.0000
     atom:   17    charge:    3.2177    magn:    1.0425    constr:    0.0000
     atom:   18    charge:    3.1999    magn:    1.0047    constr:    0.0000
     atom:   19    charge:    3.2016    magn:    1.0200    constr:    0.0000
     atom:   20    charge:    3.2177    magn:    1.0402    constr:    0.0000
     atom:   21    charge:    3.2163    magn:    1.0409    constr:    0.0000
     atom:   22    charge:    3.1999    magn:    1.0047    constr:    0.0000
     atom:   23    charge:    3.2006    magn:    1.0076    constr:    0.0000
     atom:   24    charge:    3.2177    magn:    1.0402    constr:    0.0000
     atom:   25    charge:    3.2147    magn:    1.0403    constr:    0.0000
     atom:   26    charge:    3.2000    magn:    1.0047    constr:    0.0000
     atom:   27    charge:    3.2011    magn:    1.0076    constr:    0.0000
     atom:   28    charge:    3.2177    magn:    1.0402    constr:    0.0000
     atom:   29    charge:    3.2147    magn:    1.0403    constr:    0.0000
     atom:   30    charge:    3.2000    magn:    1.0042    constr:    0.0000
     atom:   31    charge:    3.2011    magn:    1.0076    constr:    0.0000
     atom:   32    charge:    3.2164    magn:    1.0383    constr:    0.0000
     atom:   33    charge:    3.2167    magn:    1.0393    constr:    0.0000
     atom:   34    charge:    3.2000    magn:    1.0047    constr:    0.0000
     atom:   35    charge:    3.2010    magn:    1.0013    constr:    0.0000
     atom:   36    charge:    3.2177    magn:    1.0402    constr:    0.0000
     atom:   37    charge:    0.5825    magn:    0.2901    constr:    0.0000

     total cpu time spent up to now is     1213.3 secs

     total energy              =   -2896.04639044 Ry
     Harris-Foulkes estimate   =   -2896.05607628 Ry
     estimated scf accuracy    <       0.27304502 Ry

     total magnetization       =    67.95 Bohr mag/cell
     absolute magnetization    =    71.77 Bohr mag/cell

     iteration # 13     ecut=    44.10 Ry     beta=0.10
     Davidson diagonalization with overlap
     ethr =  8.32E-05,  avg # of iterations =  1.6

     negative rho (up, down):  9.310E-03 8.162E-03
 
     Adding external electric field

     Computed dipole along edir(3) : 
        Dipole               -0.4525 Ry au,         -1.1502 Debye
        Dipole field         -0.0006 Ry au
 
        Potential amp.        0.0382 Ry
        Total length         34.6232 bohr
 
 
     Adding external electric field

     Computed dipole along edir(3) : 
        Dipole               -0.4525 Ry au,         -1.1502 Debye
        Dipole field         -0.0006 Ry au
 
        Potential amp.        0.0382 Ry
        Total length         34.6232 bohr
 
 
     Magnetic moment per site:
     atom:    1    charge:    3.2179    magn:    1.0129    constr:    0.0000
     atom:    2    charge:    3.2030    magn:    0.9578    constr:    0.0000
     atom:    3    charge:    3.2031    magn:    0.9871    constr:    0.0000
     atom:    4    charge:    3.2007    magn:    0.9048    constr:    0.0000
     atom:    5    charge:    3.2179    magn:    1.0102    constr:    0.0000
     atom:    6    charge:    3.2030    magn:    0.9578    constr:    0.0000
     atom:    7    charge:    3.2020    magn:    0.9744    constr:    0.0000
     atom:    8    charge:    3.2007    magn:    0.9049    constr:    0.0000
     atom:    9    charge:    3.2179    magn:    1.0102    constr:    0.0000
     atom:   10    charge:    3.2027    magn:    0.9697    constr:    0.0000
     atom:   11    charge:    3.2020    magn:    0.9744    constr:    0.0000
     atom:   12    charge:    3.2177    magn:    1.0298    constr:    0.0000
     atom:   13    charge:    3.2180    magn:    1.0101    constr:    0.0000
     atom:   14    charge:    3.2033    magn:    0.9689    constr:    0.0000
     atom:   15    charge:    3.2021    magn:    0.9744    constr:    0.0000
     atom:   16    charge:    3.2167    magn:    1.0082    constr:    0.0000
     atom:   17    charge:    3.2180    magn:    1.0129    constr:    0.0000
     atom:   18    charge:    3.2027    magn:    0.9698    constr:    0.0000
     atom:   19    charge:    3.2031    magn:    0.9870    constr:    0.0000
     atom:   20    charge:    3.2181    magn:    1.0097    constr:    0.0000
     atom:   21    charge:    3.2180    magn:    1.0101    constr:    0.0000
     atom:   22    charge:    3.2027    magn:    0.9698    constr:    0.0000
     atom:   23    charge:    3.2021    magn:    0.9744    constr:    0.0000
     atom:   24    charge:    3.2181    magn:    1.0097    constr:    0.0000
     atom:   25    charge:    3.2177    magn:    1.0083    constr:    0.0000
     atom:   26    charge:    3.2027    magn:    0.9699    constr:    0.0000
     atom:   27    charge:    3.2024    magn:    0.9740    constr:    0.0000
     atom:   28    charge:    3.2180    magn:    1.0098    constr:    0.0000
     atom:   29    charge:    3.2177    magn:    1.0083    constr:    0.0000
     atom:   30    charge:    3.2032    magn:    0.9689    constr:    0.0000
     atom:   31    charge:    3.2024    magn:    0.9740    constr:    0.0000
     atom:   32    charge:    3.2166    magn:    1.0082    constr:    0.0000
     atom:   33    charge:    3.2171    magn:    1.0096    constr:    0.0000
     atom:   34    charge:    3.2027    magn:    0.9699    constr:    0.0000
     atom:   35    charge:    3.2021    magn:    0.9675    constr:    0.0000
     atom:   36    charge:    3.2180    magn:    1.0098    constr:    0.0000
     atom:   37    charge:    0.5750    magn:    0.2469    constr:    0.0000

     total cpu time spent up to now is     1301.6 secs

     total energy              =   -2896.09154203 Ry
     Harris-Foulkes estimate   =   -2896.05889625 Ry
     estimated scf accuracy    <       0.11694122 Ry

     total magnetization       =    67.29 Bohr mag/cell
     absolute magnetization    =    71.33 Bohr mag/cell

     iteration # 14     ecut=    44.10 Ry     beta=0.10
     Davidson diagonalization with overlap
     ethr =  3.57E-05,  avg # of iterations =  3.0

     negative rho (up, down):  8.903E-03 8.294E-03
 
     Adding external electric field

     Computed dipole along edir(3) : 
        Dipole               -0.4616 Ry au,         -1.1733 Debye
        Dipole field         -0.0006 Ry au
 
        Potential amp.        0.0389 Ry
        Total length         34.6232 bohr
 
 
     Adding external electric field

     Computed dipole along edir(3) : 
        Dipole               -0.4616 Ry au,         -1.1733 Debye
        Dipole field         -0.0006 Ry au
 
        Potential amp.        0.0389 Ry
        Total length         34.6232 bohr
 
 
     Magnetic moment per site:
     atom:    1    charge:    3.2186    magn:    1.0061    constr:    0.0000
     atom:    2    charge:    3.2034    magn:    0.9487    constr:    0.0000
     atom:    3    charge:    3.2042    magn:    0.9788    constr:    0.0000
     atom:    4    charge:    3.2003    magn:    0.8902    constr:    0.0000
     atom:    5    charge:    3.2180    magn:    1.0041    constr:    0.0000
     atom:    6    charge:    3.2034    magn:    0.9487    constr:    0.0000
     atom:    7    charge:    3.2021    magn:    0.9669    constr:    0.0000
     atom:    8    charge:    3.2003    magn:    0.8902    constr:    0.0000
     atom:    9    charge:    3.2180    magn:    1.0041    constr:    0.0000
     atom:   10    charge:    3.2028    magn:    0.9617    constr:    0.0000
     atom:   11    charge:    3.2021    magn:    0.9669    constr:    0.0000
     atom:   12    charge:    3.2179    magn:    1.0237    constr:    0.0000
     atom:   13    charge:    3.2177    magn:    1.0043    constr:    0.0000
     atom:   14    charge:    3.2030    magn:    0.9610    constr:    0.0000
     atom:   15    charge:    3.2019    magn:    0.9670    constr:    0.0000
     atom:   16    charge:    3.2177    magn:    1.0015    constr:    0.0000
     atom:   17    charge:    3.2184    magn:    1.0063    constr:    0.0000
     atom:   18    charge:    3.2032    magn:    0.9614    constr:    0.0000
     atom:   19    charge:    3.2041    magn:    0.9789    constr:    0.0000
     atom:   20    charge:    3.2176    magn:    1.0040    constr:    0.0000
     atom:   21    charge:    3.2178    magn:    1.0043    constr:    0.0000
     atom:   22    charge:    3.2032    magn:    0.9614    constr:    0.0000
     atom:   23    charge:    3.2019    magn:    0.9670    constr:    0.0000
     atom:   24    charge:    3.2176    magn:    1.0040    constr:    0.0000
     atom:   25    charge:    3.2175    magn:    1.0024    constr:    0.0000
     atom:   26    charge:    3.2034    magn:    0.9613    constr:    0.0000
     atom:   27    charge:    3.2028    magn:    0.9658    constr:    0.0000
     atom:   28    charge:    3.2179    magn:    1.0038    constr:    0.0000
     atom:   29    charge:    3.2175    magn:    1.0024    constr:    0.0000
     atom:   30    charge:    3.2032    magn:    0.9609    constr:    0.0000
     atom:   31    charge:    3.2028    magn:    0.9658    constr:    0.0000
     atom:   32    charge:    3.2180    magn:    1.0013    constr:    0.0000
     atom:   33    charge:    3.2177    magn:    1.0030    constr:    0.0000
     atom:   34    charge:    3.2034    magn:    0.9613    constr:    0.0000
     atom:   35    charge:    3.2027    magn:    0.9593    constr:    0.0000
     atom:   36    charge:    3.2179    magn:    1.0038    constr:    0.0000
     atom:   37    charge:    0.5727    magn:    0.2318    constr:    0.0000

     total cpu time spent up to now is     1395.8 secs

     total energy              =   -2896.10828348 Ry
     Harris-Foulkes estimate   =   -2896.10119966 Ry
     estimated scf accuracy    <       0.02493833 Ry

     total magnetization       =    65.65 Bohr mag/cell
     absolute magnetization    =    70.60 Bohr mag/cell

     iteration # 15     ecut=    44.10 Ry     beta=0.10
     Davidson diagonalization with overlap
     ethr =  7.60E-06,  avg # of iterations =  7.6

     negative rho (up, down):  8.318E-03 8.377E-03
 
     Adding external electric field

     Computed dipole along edir(3) : 
        Dipole               -0.4429 Ry au,         -1.1257 Debye
        Dipole field         -0.0005 Ry au
 
        Potential amp.        0.0374 Ry
        Total length         34.6232 bohr
 
 
     Adding external electric field

     Computed dipole along edir(3) : 
        Dipole               -0.4429 Ry au,         -1.1257 Debye
        Dipole field         -0.0005 Ry au
 
        Potential amp.        0.0374 Ry
        Total length         34.6232 bohr
 
 
     Magnetic moment per site:
     atom:    1    charge:    3.2183    magn:    1.0034    constr:    0.0000
     atom:    2    charge:    3.2033    magn:    0.9429    constr:    0.0000
     atom:    3    charge:    3.2039    magn:    0.9744    constr:    0.0000
     atom:    4    charge:    3.1998    magn:    0.8789    constr:    0.0000
     atom:    5    charge:    3.2181    magn:    1.0012    constr:    0.0000
     atom:    6    charge:    3.2033    magn:    0.9429    constr:    0.0000
     atom:    7    charge:    3.2022    magn:    0.9623    constr:    0.0000
     atom:    8    charge:    3.1998    magn:    0.8789    constr:    0.0000
     atom:    9    charge:    3.2181    magn:    1.0012    constr:    0.0000
     atom:   10    charge:    3.2029    magn:    0.9565    constr:    0.0000
     atom:   11    charge:    3.2022    magn:    0.9623    constr:    0.0000
     atom:   12    charge:    3.2182    magn:    1.0206    constr:    0.0000
     atom:   13    charge:    3.2184    magn:    1.0010    constr:    0.0000
     atom:   14    charge:    3.2036    magn:    0.9556    constr:    0.0000
     atom:   15    charge:    3.2024    magn:    0.9621    constr:    0.0000
     atom:   16    charge:    3.2178    magn:    0.9990    constr:    0.0000
     atom:   17    charge:    3.2186    magn:    1.0032    constr:    0.0000
     atom:   18    charge:    3.2035    magn:    0.9561    constr:    0.0000
     atom:   19    charge:    3.2042    magn:    0.9743    constr:    0.0000
     atom:   20    charge:    3.2183    magn:    1.0009    constr:    0.0000
     atom:   21    charge:    3.2184    magn:    1.0010    constr:    0.0000
     atom:   22    charge:    3.2035    magn:    0.9561    constr:    0.0000
     atom:   23    charge:    3.2024    magn:    0.9621    constr:    0.0000
     atom:   24    charge:    3.2183    magn:    1.0009    constr:    0.0000
     atom:   25    charge:    3.2181    magn:    0.9992    constr:    0.0000
     atom:   26    charge:    3.2032    magn:    0.9563    constr:    0.0000
     atom:   27    charge:    3.2033    magn:    0.9605    constr:    0.0000
     atom:   28    charge:    3.2180    magn:    1.0011    constr:    0.0000
     atom:   29    charge:    3.2181    magn:    0.9992    constr:    0.0000
     atom:   30    charge:    3.2033    magn:    0.9557    constr:    0.0000
     atom:   31    charge:    3.2033    magn:    0.9605    constr:    0.0000
     atom:   32    charge:    3.2175    magn:    0.9993    constr:    0.0000
     atom:   33    charge:    3.2179    magn:    1.0000    constr:    0.0000
     atom:   34    charge:    3.2032    magn:    0.9563    constr:    0.0000
     atom:   35    charge:    3.2032    magn:    0.9543    constr:    0.0000
     atom:   36    charge:    3.2180    magn:    1.0011    constr:    0.0000
     atom:   37    charge:    0.5710    magn:    0.2180    constr:    0.0000

     total cpu time spent up to now is     1511.9 secs

     total energy              =   -2896.11423413 Ry
     Harris-Foulkes estimate   =   -2896.10996820 Ry
     estimated scf accuracy    <       0.02696687 Ry

     total magnetization       =    65.20 Bohr mag/cell
     absolute magnetization    =    70.39 Bohr mag/cell

     iteration # 16     ecut=    44.10 Ry     beta=0.10
     Davidson diagonalization with overlap
     ethr =  7.60E-06,  avg # of iterations =  1.0

     negative rho (up, down):  7.784E-03 8.448E-03
 
     Adding external electric field

     Computed dipole along edir(3) : 
        Dipole               -0.4778 Ry au,         -1.2145 Debye
        Dipole field         -0.0006 Ry au
 
        Potential amp.        0.0403 Ry
        Total length         34.6232 bohr
 
 
     Adding external electric field

     Computed dipole along edir(3) : 
        Dipole               -0.4778 Ry au,         -1.2145 Debye
        Dipole field         -0.0006 Ry au
 
        Potential amp.        0.0403 Ry
        Total length         34.6232 bohr
 
 
     Magnetic moment per site:
     atom:    1    charge:    3.2186    magn:    1.0022    constr:    0.0000
     atom:    2    charge:    3.2033    magn:    0.9414    constr:    0.0000
     atom:    3    charge:    3.2038    magn:    0.9733    constr:    0.0000
     atom:    4    charge:    3.2002    magn:    0.8757    constr:    0.0000
     atom:    5    charge:    3.2183    magn:    1.0002    constr:    0.0000
     atom:    6    charge:    3.2033    magn:    0.9414    constr:    0.0000
     atom:    7    charge:    3.2025    magn:    0.9608    constr:    0.0000
     atom:    8    charge:    3.2002    magn:    0.8757    constr:    0.0000
     atom:    9    charge:    3.2183    magn:    1.0002    constr:    0.0000
     atom:   10    charge:    3.2029    magn:    0.9552    constr:    0.0000
     atom:   11    charge:    3.2025    magn:    0.9608    constr:    0.0000
     atom:   12    charge:    3.2185    magn:    1.0195    constr:    0.0000
     atom:   13    charge:    3.2183    magn:    1.0002    constr:    0.0000
     atom:   14    charge:    3.2035    magn:    0.9543    constr:    0.0000
     atom:   15    charge:    3.2025    magn:    0.9609    constr:    0.0000
     atom:   16    charge:    3.2179    magn:    0.9981    constr:    0.0000
     atom:   17    charge:    3.2186    magn:    1.0022    constr:    0.0000
     atom:   18    charge:    3.2032    magn:    0.9549    constr:    0.0000
     atom:   19    charge:    3.2038    magn:    0.9733    constr:    0.0000
     atom:   20    charge:    3.2186    magn:    0.9997    constr:    0.0000
     atom:   21    charge:    3.2183    magn:    1.0002    constr:    0.0000
     atom:   22    charge:    3.2032    magn:    0.9549    constr:    0.0000
     atom:   23    charge:    3.2025    magn:    0.9609    constr:    0.0000
     atom:   24    charge:    3.2186    magn:    0.9997    constr:    0.0000
     atom:   25    charge:    3.2181    magn:    0.9982    constr:    0.0000
     atom:   26    charge:    3.2032    magn:    0.9549    constr:    0.0000
     atom:   27    charge:    3.2032    magn:    0.9592    constr:    0.0000
     atom:   28    charge:    3.2186    magn:    0.9997    constr:    0.0000
     atom:   29    charge:    3.2181    magn:    0.9982    constr:    0.0000
     atom:   30    charge:    3.2035    magn:    0.9543    constr:    0.0000
     atom:   31    charge:    3.2032    magn:    0.9592    constr:    0.0000
     atom:   32    charge:    3.2179    magn:    0.9981    constr:    0.0000
     atom:   33    charge:    3.2178    magn:    0.9991    constr:    0.0000
     atom:   34    charge:    3.2032    magn:    0.9549    constr:    0.0000
     atom:   35    charge:    3.2032    magn:    0.9531    constr:    0.0000
     atom:   36    charge:    3.2186    magn:    0.9997    constr:    0.0000
     atom:   37    charge:    0.5704    magn:    0.2146    constr:    0.0000

     total cpu time spent up to now is     1597.7 secs

     total energy              =   -2896.11617383 Ry
     Harris-Foulkes estimate   =   -2896.11571970 Ry
     estimated scf accuracy    <       0.04588143 Ry

     total magnetization       =    64.94 Bohr mag/cell
     absolute magnetization    =    70.30 Bohr mag/cell

     iteration # 17     ecut=    44.10 Ry     beta=0.10
     Davidson diagonalization with overlap
     ethr =  7.60E-06,  avg # of iterations =  1.0

     negative rho (up, down):  7.169E-03 8.570E-03
 
     Adding external electric field

     Computed dipole along edir(3) : 
        Dipole               -0.4588 Ry au,         -1.1662 Debye
        Dipole field         -0.0006 Ry au
 
        Potential amp.        0.0387 Ry
        Total length         34.6232 bohr
 
 
     Adding external electric field

     Computed dipole along edir(3) : 
        Dipole               -0.4588 Ry au,         -1.1662 Debye
        Dipole field         -0.0006 Ry au
 
        Potential amp.        0.0387 Ry
        Total length         34.6232 bohr
 
 
     Magnetic moment per site:
     atom:    1    charge:    3.2193    magn:    1.0008    constr:    0.0000
     atom:    2    charge:    3.2037    magn:    0.9366    constr:    0.0000
     atom:    3    charge:    3.2034    magn:    0.9706    constr:    0.0000
     atom:    4    charge:    3.2004    magn:    0.8637    constr:    0.0000
     atom:    5    charge:    3.2189    magn:    0.9992    constr:    0.0000
     atom:    6    charge:    3.2037    magn:    0.9366    constr:    0.0000
     atom:    7    charge:    3.2028    magn:    0.9577    constr:    0.0000
     atom:    8    charge:    3.2004    magn:    0.8637    constr:    0.0000
     atom:    9    charge:    3.2189    magn:    0.9992    constr:    0.0000
     atom:   10    charge:    3.2029    magn:    0.9517    constr:    0.0000
     atom:   11    charge:    3.2028    magn:    0.9577    constr:    0.0000
     atom:   12    charge:    3.2187    magn:    1.0183    constr:    0.0000
     atom:   13    charge:    3.2188    magn:    0.9993    constr:    0.0000
     atom:   14    charge:    3.2033    magn:    0.9509    constr:    0.0000
     atom:   15    charge:    3.2027    magn:    0.9578    constr:    0.0000
     atom:   16    charge:    3.2184    magn:    0.9977    constr:    0.0000
     atom:   17    charge:    3.2192    magn:    1.0009    constr:    0.0000
     atom:   18    charge:    3.2030    magn:    0.9515    constr:    0.0000
     atom:   19    charge:    3.2033    magn:    0.9706    constr:    0.0000
     atom:   20    charge:    3.2191    magn:    0.9990    constr:    0.0000
     atom:   21    charge:    3.2188    magn:    0.9993    constr:    0.0000
     atom:   22    charge:    3.2030    magn:    0.9515    constr:    0.0000
     atom:   23    charge:    3.2027    magn:    0.9578    constr:    0.0000
     atom:   24    charge:    3.2191    magn:    0.9990    constr:    0.0000
     atom:   25    charge:    3.2186    magn:    0.9973    constr:    0.0000
     atom:   26    charge:    3.2031    magn:    0.9514    constr:    0.0000
     atom:   27    charge:    3.2030    magn:    0.9559    constr:    0.0000
     atom:   28    charge:    3.2192    magn:    0.9989    constr:    0.0000
     atom:   29    charge:    3.2186    magn:    0.9973    constr:    0.0000
     atom:   30    charge:    3.2033    magn:    0.9508    constr:    0.0000
     atom:   31    charge:    3.2030    magn:    0.9559    constr:    0.0000
     atom:   32    charge:    3.2185    magn:    0.9976    constr:    0.0000
     atom:   33    charge:    3.2185    magn:    0.9980    constr:    0.0000
     atom:   34    charge:    3.2031    magn:    0.9514    constr:    0.0000
     atom:   35    charge:    3.2030    magn:    0.9502    constr:    0.0000
     atom:   36    charge:    3.2192    magn:    0.9989    constr:    0.0000
     atom:   37    charge:    0.5683    magn:    0.1980    constr:    0.0000

     total cpu time spent up to now is     1683.8 secs

     total energy              =   -2896.12143255 Ry
     Harris-Foulkes estimate   =   -2896.11712602 Ry
     estimated scf accuracy    <       0.01889474 Ry

     total magnetization       =    64.83 Bohr mag/cell
     absolute magnetization    =    70.25 Bohr mag/cell

     iteration # 18     ecut=    44.10 Ry     beta=0.10
     Davidson diagonalization with overlap
     ethr =  5.76E-06,  avg # of iterations =  1.2

     negative rho (up, down):  6.656E-03 8.781E-03
 
     Adding external electric field

     Computed dipole along edir(3) : 
        Dipole               -0.4657 Ry au,         -1.1838 Debye
        Dipole field         -0.0006 Ry au
 
        Potential amp.        0.0393 Ry
        Total length         34.6232 bohr
 
 
     Adding external electric field

     Computed dipole along edir(3) : 
        Dipole               -0.4657 Ry au,         -1.1838 Debye
        Dipole field         -0.0006 Ry au
 
        Potential amp.        0.0393 Ry
        Total length         34.6232 bohr
 
 
     Magnetic moment per site:
     atom:    1    charge:    3.2195    magn:    0.9981    constr:    0.0000
     atom:    2    charge:    3.2028    magn:    0.9284    constr:    0.0000
     atom:    3    charge:    3.2025    magn:    0.9652    constr:    0.0000
     atom:    4    charge:    3.2005    magn:    0.8429    constr:    0.0000
     atom:    5    charge:    3.2189    magn:    0.9971    constr:    0.0000
     atom:    6    charge:    3.2028    magn:    0.9284    constr:    0.0000
     atom:    7    charge:    3.2020    magn:    0.9520    constr:    0.0000
     atom:    8    charge:    3.2005    magn:    0.8429    constr:    0.0000
     atom:    9    charge:    3.2189    magn:    0.9971    constr:    0.0000
     atom:   10    charge:    3.2019    magn:    0.9452    constr:    0.0000
     atom:   11    charge:    3.2020    magn:    0.9520    constr:    0.0000
     atom:   12    charge:    3.2190    magn:    1.0154    constr:    0.0000
     atom:   13    charge:    3.2190    magn:    0.9971    constr:    0.0000
     atom:   14    charge:    3.2027    magn:    0.9441    constr:    0.0000
     atom:   15    charge:    3.2020    magn:    0.9520    constr:    0.0000
     atom:   16    charge:    3.2199    magn:    0.9952    constr:    0.0000
     atom:   17    charge:    3.2195    magn:    0.9980    constr:    0.0000
     atom:   18    charge:    3.2026    magn:    0.9444    constr:    0.0000
     atom:   19    charge:    3.2025    magn:    0.9652    constr:    0.0000
[...]
    -1.3454  -1.3451  -1.3184  -1.2913  -1.2833  -1.2716  -1.2638  -1.2331
    -1.2181  -1.2147  -1.1829  -1.1701  -1.1552  -1.1428  -1.0916  -1.0830
    -1.0717  -1.0602  -1.0459  -1.0389  -1.0141  -0.9718  -0.9505  -0.9490
    -0.9233  -0.9016  -0.8893  -0.8694  -0.8656  -0.8537  -0.8334  -0.8314
    -0.8093  -0.7931  -0.7728  -0.7705  -0.7168  -0.7167  -0.7053  -0.6852
    -0.6793  -0.6613  -0.6362  -0.6163  -0.5901  -0.5756  -0.5545  -0.5408
    -0.5284  -0.5240  -0.4925  -0.4703  -0.4307  -0.4167  -0.4009  -0.3806
    -0.3717  -0.3567  -0.3209  -0.2624  -0.2357  -0.2107  -0.1389   0.4047
     0.4823   0.5486   0.6921   0.7138   0.7258   0.7674   0.8757   1.0770
     1.4462   1.4653   1.7769   1.8117   1.8920   2.1005   2.3344   2.4075
     2.5694   2.7420   2.8004   2.9060   3.0682   3.3580   3.3686   3.4139
     3.4809   3.5438   3.8223   3.9141   4.1371   4.2922   4.3897   4.5688
     4.7516   4.9357   5.1428   5.2315   5.2849   5.4502   5.5063   5.7614
     5.7641   5.7799   5.8800   6.1710   6.2885   6.3631   6.5040   6.5728
     6.6172   6.6308   6.6624   6.6976   6.7749   6.7917   6.9487   7.0443
     7.1095   7.1439   7.1926   7.5421   7.6704   7.7985   7.8912   7.8943
     7.9114   7.9750   7.9993   8.2597   8.3233   8.4330   8.5701   8.6235

 ------ SPIN DOWN ----------


          k = 0.0000 0.0000 0.0000 ( 50983 PWs)   bands (ev):

    -9.9381  -7.3185  -6.0928  -5.9984  -4.9986  -4.9176  -4.5281  -4.1779
    -4.0564  -4.0279  -4.0044  -3.8186  -3.7343  -3.4552  -3.4298  -3.3656
    -3.1425  -2.9968  -2.9224  -2.9075  -2.8587  -2.7104  -2.5814  -2.5706
    -2.5525  -2.4555  -2.4528  -2.3228  -2.2911  -2.2736  -2.2392  -2.1995
    -2.1689  -2.1590  -2.1303  -2.0942  -2.0453  -2.0099  -1.9804  -1.9797
    -1.9736  -1.9611  -1.9195  -1.9046  -1.8911  -1.7927  -1.6981  -1.6877
    -1.6633  -1.6565  -1.6272  -1.6086  -1.5695  -1.5490  -1.4853  -1.4723
    -1.4302  -1.3801  -1.3567  -1.2971  -1.2961  -1.2298  -1.1527  -1.1492
    -1.0444  -1.0044  -1.0035  -1.0028  -0.9958  -0.9698  -0.9574  -0.9497
    -0.9039  -0.9032  -0.8993  -0.8400  -0.8273  -0.7594  -0.6799  -0.6763
    -0.6553  -0.6492  -0.6366  -0.6283  -0.6245  -0.5686  -0.5676  -0.5492
    -0.5284  -0.5139  -0.4659  -0.4133  -0.3932  -0.3710  -0.3655  -0.3428
    -0.3303  -0.2811  -0.2769  -0.2531  -0.2262  -0.2183  -0.2096  -0.2094
    -0.2077  -0.1736  -0.1605  -0.1420  -0.1198  -0.1146  -0.1120  -0.0537
    -0.0285   0.0185   0.0208   0.0270   0.0629   0.0860   0.1110   0.1200
     0.1596   0.1909   0.1976   0.3213   0.3957   0.3988   0.4166   0.4708
     0.4724   0.4724   0.4740   0.4994   0.5062   0.5275   0.5333   0.5955
     0.6121   0.6144   0.6528   0.6785   0.7208   0.7254   0.7409   0.7445
     0.7526   0.7799   0.8141   0.8177   0.8287   0.8531   0.8682   0.8827
     0.9244   0.9489   0.9870   0.9926   1.0202   1.0575   1.0837   1.0931
     1.1022   1.1138   1.1153   1.1363   1.1385   1.1438   1.1886   1.1892
     1.2190   1.2200   1.2270   1.2406   1.2485   1.2521   1.2576   1.2646
     1.2797   1.2906   1.3143   1.3311   1.3487   1.3501   1.3532   1.3600
     1.3843   1.3986   1.4039   1.4390   1.4415   1.4613   1.4693   1.4851
     1.5670   1.5913   1.6064   1.6238   1.6315   1.6332   1.7204   2.0030
     2.1099   2.4826   2.5847   2.6332   2.7560   2.8221   3.0956   3.3716
     3.4521   3.4817   3.5524   3.6618   3.7335   3.7488   3.7849   3.9480
     3.9848   4.2284   4.3734   4.6733   4.6962   4.8801   5.1205   5.2082
     5.3589   5.3794   5.4096   5.5336   5.5522   5.8490   5.9672   6.0359
     6.0584   6.0998   6.3948   6.5317   6.5389   6.5739   6.6943   6.6984
     6.7082   6.8206   6.8289   7.0873   7.1576   7.4519   7.5885   7.6679
     7.6883   7.7274   7.9228   7.9569   7.9576   7.9586   8.0419   8.0493
     8.1372   8.3798   8.3949   8.4110   8.4284   8.5034   8.6765   8.6998

          k = 0.0000 0.0538 0.0000 ( 51003 PWs)   bands (ev):

    -9.9268  -6.8919  -6.4604  -6.0433  -5.6496  -4.9075  -4.2973  -4.1856
    -3.9983  -3.9464  -3.7033  -3.5895  -3.4896  -3.4495  -3.3452  -3.1457
    -3.1288  -3.0337  -3.0258  -2.9303  -2.8599  -2.8192  -2.7915  -2.7461
    -2.6676  -2.5038  -2.4652  -2.4372  -2.4256  -2.3672  -2.3138  -2.2889
    -2.2737  -2.2316  -2.1909  -2.1162  -2.0670  -2.0257  -2.0198  -1.9660
    -1.9199  -1.9060  -1.8733  -1.8366  -1.8126  -1.7595  -1.7253  -1.7138
    -1.6475  -1.6213  -1.5340  -1.5169  -1.5093  -1.4982  -1.4629  -1.4020
    -1.3939  -1.3285  -1.3052  -1.2896  -1.2733  -1.2598  -1.2410  -1.2121
    -1.2004  -1.1595  -1.0987  -1.0770  -1.0256  -0.9634  -0.9590  -0.9308
    -0.9066  -0.8575  -0.8249  -0.7996  -0.7817  -0.7682  -0.7532  -0.7289
    -0.7176  -0.6924  -0.6843  -0.6738  -0.6556  -0.6265  -0.5869  -0.5348
    -0.5241  -0.4985  -0.4790  -0.4535  -0.4400  -0.4206  -0.4124  -0.3958
    -0.3712  -0.3405  -0.3272  -0.2901  -0.2713  -0.2586  -0.2461  -0.2004
    -0.1857  -0.1707  -0.1141  -0.1102  -0.0649  -0.0572  -0.0172  -0.0060
     0.0282   0.0594   0.0717   0.0840   0.1092   0.1323   0.1585   0.2023
     0.2277   0.2383   0.2509   0.2851   0.3030   0.3156   0.3189   0.3486
     0.3794   0.3946   0.4075   0.4231   0.4263   0.4414   0.4675   0.5174
     0.5624   0.5756   0.6107   0.6564   0.6744   0.6884   0.7067   0.7227
     0.7585   0.7664   0.8146   0.8300   0.8500   0.8619   0.9361   0.9495
     0.9714   0.9943   1.0026   1.0230   1.0309   1.0526   1.0570   1.0745
     1.1025   1.1226   1.1276   1.1547   1.1573   1.1674   1.1887   1.1933
     1.2034   1.2153   1.2306   1.2375   1.2565   1.2721   1.2857   1.3397
     1.3668   1.3854   1.4044   1.4150   1.4200   1.4323   1.4772   1.4845
     1.4898   1.5051   1.5333   1.5499   1.5608   1.5650   1.5806   1.5836
     1.6946   1.7199   1.8118   1.8827   1.9344   2.0205   2.1489   2.2866
     2.3381   2.3556   2.4655   2.5340   2.6065   2.9068   2.9555   3.1360
     3.1919   3.3577   3.6520   3.6796   3.7908   3.8180   3.9078   3.9531
     4.2006   4.3576   4.4069   4.5402   4.6199   4.6593   4.7624   4.8624
     4.9421   5.0316   5.2422   5.4536   5.5541   5.6330   5.6639   5.8524
     5.9220   5.9737   6.0432   6.3767   6.3916   6.4434   6.4997   6.5457
     6.7333   6.7891   6.8307   6.8779   7.1695   7.2258   7.2576   7.3958
     7.4568   7.5196   7.5859   7.7913   7.8623   7.8703   7.9760   8.1210
     8.1362   8.2529   8.3253   8.3923   8.4516   8.5917   8.6246   8.7187

          k = 0.0254 0.0179 0.0000 ( 50993 PWs)   bands (ev):

    -9.9377  -7.1797  -6.7283  -5.1650  -4.8933  -4.8072  -4.5578  -4.5088
    -4.4306  -4.2307  -4.1118  -3.6538  -3.5110  -3.3907  -3.2821  -3.1383
    -3.0674  -3.0398  -3.0199  -2.9948  -2.9315  -2.8518  -2.8117  -2.6938
    -2.6274  -2.4468  -2.3865  -2.2776  -2.2739  -2.2156  -2.2140  -2.1983
    -2.1066  -2.0986  -2.0960  -2.0837  -2.0501  -2.0054  -1.9449  -1.9320
    -1.9066  -1.8583  -1.8531  -1.8301  -1.8209  -1.7788  -1.7679  -1.7498
    -1.7085  -1.6828  -1.6704  -1.6540  -1.5560  -1.5494  -1.5270  -1.5093
    -1.4405  -1.4344  -1.3993  -1.3679  -1.2457  -1.2312  -1.1918  -1.1402
    -1.1146  -1.0925  -1.0683  -1.0645  -1.0048  -0.9874  -0.9867  -0.9090
    -0.8841  -0.8556  -0.8221  -0.8084  -0.7867  -0.7503  -0.7435  -0.7199
    -0.6975  -0.6894  -0.6563  -0.5106  -0.4726  -0.4719  -0.4558  -0.4322
    -0.4293  -0.4178  -0.4103  -0.3843  -0.3709  -0.3694  -0.3654  -0.3445
    -0.3263  -0.3166  -0.2960  -0.2779  -0.2636  -0.2623  -0.2385  -0.2352
    -0.2159  -0.1776  -0.1767  -0.1694  -0.1575  -0.1407  -0.1119  -0.0804
    -0.0473  -0.0124   0.0061   0.0083   0.0084   0.0952   0.1059   0.1568
     0.1862   0.2049   0.2434   0.2663   0.3172   0.3205   0.3567   0.4025
     0.4114   0.4366   0.4498   0.4742   0.5276   0.5351   0.5588   0.5661
     0.6124   0.6195   0.6295   0.6456   0.7047   0.7221   0.7505   0.7640
     0.7669   0.8231   0.8383   0.8663   0.8786   0.9041   0.9102   0.9136
     0.9163   0.9781   0.9867   1.0082   1.0092   1.0423   1.0694   1.0751
     1.1317   1.1481   1.1494   1.1670   1.1771   1.1813   1.1908   1.1912
     1.2168   1.2207   1.2259   1.2365   1.2451   1.2497   1.2598   1.2606
     1.2722   1.2906   1.2914   1.3005   1.3256   1.3288   1.4019   1.4234
     1.4339   1.4531   1.4859   1.4985   1.5213   1.5305   1.5461   1.5538
     1.5648   1.5772   1.6109   1.6193   1.6222   1.6787   1.8105   1.9546
     2.0244   2.2721   2.3221   2.3698   2.4336   2.7405   3.0398   3.2459
     3.3497   3.4781   3.5480   3.5598   3.6404   3.8272   3.8827   4.1650
     4.2393   4.3382   4.3748   4.7024   4.7040   5.1014   5.1201   5.2085
     5.3152   5.4964   5.5590   5.6028   5.6636   5.8848   5.9642   6.0899
     6.1464   6.2998   6.3410   6.4726   6.5416   6.5596   6.6569   6.7823
     6.9163   7.0869   7.0988   7.1563   7.2456   7.3144   7.5759   7.6570
     7.6849   7.7646   7.8307   7.8390   7.8419   7.8924   7.9169   7.9724
     8.0074   8.0113   8.1598   8.3293   8.3403   8.3757   8.3902   8.4223

          k = 0.0254 0.0718 0.0000 ( 51003 PWs)   bands (ev):

    -9.9268  -6.8919  -6.4604  -6.0433  -5.6497  -4.9075  -4.2973  -4.1856
    -3.9983  -3.9464  -3.7033  -3.5895  -3.4896  -3.4495  -3.3452  -3.1457
    -3.1288  -3.0337  -3.0258  -2.9303  -2.8599  -2.8192  -2.7915  -2.7461
    -2.6676  -2.5038  -2.4652  -2.4372  -2.4256  -2.3672  -2.3138  -2.2889
    -2.2737  -2.2316  -2.1910  -2.1162  -2.0671  -2.0257  -2.0198  -1.9660
    -1.9199  -1.9060  -1.8733  -1.8366  -1.8126  -1.7595  -1.7253  -1.7138
    -1.6475  -1.6213  -1.5340  -1.5169  -1.5093  -1.4982  -1.4629  -1.4020
    -1.3939  -1.3285  -1.3052  -1.2896  -1.2733  -1.2598  -1.2410  -1.2121
    -1.2004  -1.1595  -1.0987  -1.0770  -1.0256  -0.9634  -0.9590  -0.9308
    -0.9066  -0.8574  -0.8249  -0.7997  -0.7817  -0.7682  -0.7532  -0.7288
    -0.7177  -0.6924  -0.6843  -0.6738  -0.6556  -0.6264  -0.5869  -0.5348
    -0.5241  -0.4985  -0.4790  -0.4535  -0.4400  -0.4206  -0.4124  -0.3958
    -0.3712  -0.3405  -0.3272  -0.2901  -0.2713  -0.2586  -0.2461  -0.2004
    -0.1857  -0.1707  -0.1141  -0.1102  -0.0649  -0.0573  -0.0172  -0.0060
     0.0282   0.0595   0.0717   0.0840   0.1092   0.1323   0.1586   0.2023
     0.2278   0.2383   0.2509   0.2851   0.3030   0.3157   0.3189   0.3486
     0.3794   0.3946   0.4075   0.4231   0.4263   0.4414   0.4675   0.5174
     0.5624   0.5756   0.6108   0.6564   0.6745   0.6884   0.7067   0.7227
     0.7585   0.7663   0.8146   0.8300   0.8500   0.8619   0.9361   0.9495
     0.9714   0.9943   1.0027   1.0230   1.0309   1.0526   1.0570   1.0745
     1.1025   1.1227   1.1276   1.1548   1.1572   1.1674   1.1886   1.1933
     1.2034   1.2153   1.2307   1.2375   1.2565   1.2721   1.2856   1.3397
     1.3668   1.3854   1.4044   1.4150   1.4200   1.4323   1.4772   1.4845
     1.4898   1.5051   1.5333   1.5499   1.5608   1.5650   1.5806   1.5836
     1.6946   1.7199   1.8118   1.8827   1.9344   2.0205   2.1489   2.2866
     2.3381   2.3556   2.4655   2.5340   2.6065   2.9068   2.9555   3.1360
     3.1919   3.3577   3.6519   3.6797   3.7908   3.8180   3.9078   3.9531
     4.2006   4.3577   4.4069   4.5402   4.6198   4.6593   4.7624   4.8625
     4.9421   5.0315   5.2422   5.4536   5.5542   5.6328   5.6640   5.8522
     5.9220   5.9740   6.0432   6.3766   6.3915   6.4435   6.4998   6.5458
     6.7330   6.7891   6.8308   6.8780   7.1696   7.2258   7.2576   7.3958
     7.4568   7.5196   7.5857   7.7913   7.8622   7.8703   7.9760   8.1210
     8.1362   8.2529   8.3253   8.3924   8.4516   8.5917   8.6245   8.7187

          k = 0.0254-0.0359 0.0000 ( 51064 PWs)   bands (ev):

    -9.9270  -7.0328  -6.1955  -5.8095  -5.7341  -5.0349  -5.0201  -4.2980
    -3.8437  -3.7053  -3.5571  -3.4924  -3.3713  -3.3062  -3.2382  -3.2367
    -3.1106  -3.0667  -2.9550  -2.8704  -2.8464  -2.7821  -2.7474  -2.7386
    -2.6716  -2.6346  -2.5396  -2.5097  -2.4004  -2.3604  -2.3355  -2.3072
    -2.2421  -2.2077  -2.1605  -2.1553  -2.1475  -2.1182  -2.0988  -2.0560
    -1.9475  -1.8872  -1.8695  -1.7741  -1.7699  -1.7363  -1.7039  -1.6962
    -1.6818  -1.6555  -1.6223  -1.6158  -1.5661  -1.5115  -1.3984  -1.3560
    -1.3380  -1.2524  -1.2450  -1.2155  -1.1764  -1.1669  -1.1480  -1.1429
    -1.1144  -1.0971  -1.0626  -1.0438  -1.0258  -1.0167  -1.0009  -0.9977
    -0.9912  -0.9577  -0.9401  -0.9054  -0.8613  -0.8105  -0.8009  -0.7274
    -0.7106  -0.6877  -0.6834  -0.6499  -0.6295  -0.6052  -0.5642  -0.5535
    -0.5353  -0.4966  -0.4686  -0.4595  -0.4409  -0.3988  -0.3916  -0.3567
    -0.3460  -0.3354  -0.3042  -0.2966  -0.2921  -0.2349  -0.2258  -0.2029
    -0.1875  -0.1635  -0.1597  -0.1409  -0.0996  -0.0692  -0.0622  -0.0399
    -0.0349  -0.0094   0.0064   0.0517   0.0781   0.0925   0.1655   0.1857
     0.1978   0.2435   0.2539   0.2904   0.3141   0.3177   0.3199   0.3452
     0.3721   0.3959   0.4248   0.4392   0.4441   0.4903   0.5320   0.5545
     0.5772   0.5835   0.6163   0.6639   0.6806   0.7316   0.7378   0.7660
     0.7820   0.8188   0.8397   0.8718   0.8858   0.9131   0.9164   0.9244
     0.9453   0.9540   0.9609   0.9821   1.0015   1.0420   1.0577   1.0648
     1.0902   1.0997   1.1074   1.1128   1.1152   1.1785   1.1905   1.2107
     1.2274   1.2435   1.2495   1.2602   1.2663   1.2795   1.2910   1.2982
     1.3313   1.3438   1.3569   1.3841   1.4038   1.4295   1.4712   1.4982
     1.5082   1.5204   1.5308   1.5344   1.5713   1.5860   1.6221   1.6248
     1.7214   1.8424   1.9184   1.9406   1.9936   1.9955   2.1183   2.1493
     2.1930   2.3014   2.4981   2.7326   2.7495   2.9030   3.0344   3.1852
     3.1942   3.4952   3.5109   3.7186   3.7579   3.7624   3.8280   3.9981
     4.1216   4.1324   4.2309   4.2962   4.4643   4.6047   4.7518   4.9222
     5.1254   5.2950   5.3000   5.5067   5.5421   5.6145   5.6259   5.6702
     5.6924   5.8922   6.1649   6.3119   6.3735   6.4354   6.5398   6.5401
     6.6537   6.9551   6.9739   7.0252   7.0393   7.0695   7.1790   7.3072
     7.5861   7.5951   7.6601   7.6757   7.7967   7.8357   7.8418   7.9724
     8.3266   8.3607   8.4219   8.4245   8.5293   8.5813   8.6442   8.7292

     the Fermi energy is     0.4988 ev

!    total energy              =   -2896.29199486 Ry
     Harris-Foulkes estimate   =   -2896.29188355 Ry
     estimated scf accuracy    <       0.00000059 Ry

     The total energy is the sum of the following terms:

     one-electron contribution =  -15065.58255722 Ry
     hartree contribution      =    7845.08466402 Ry
     xc contribution           =   -1330.86728823 Ry
     ewald contribution        =    5655.19482322 Ry
     electric field correction =       0.00013330 Ry
     smearing contrib. (-TS)   =      -0.12176996 Ry

     total magnetization       =    61.42 Bohr mag/cell
     absolute magnetization    =    68.16 Bohr mag/cell

     convergence has been achieved in  18 iterations

     Forces acting on atoms (Ry/au):


     negative rho (up, down):  4.179E-03 1.328E-02
     atom    1 type  1   force =     0.00237277    0.00167263    0.03206157
     atom    2 type  1   force =    -0.00038036    0.00022873   -0.03185845
     atom    3 type  1   force =    -0.00049632   -0.00037280   -0.00004891
     atom    4 type  1   force =     0.00005068   -0.00026161   -0.00063799
     atom    5 type  1   force =     0.00100863    0.00031954    0.02980748
     atom    6 type  1   force =     0.00008808   -0.00043577   -0.03186739
     atom    7 type  1   force =    -0.00052592   -0.00075629    0.00044589
     atom    8 type  1   force =    -0.00020845    0.00009220   -0.00060572
     atom    9 type  1   force =     0.00063513    0.00084727    0.02980426
     atom   10 type  1   force =    -0.00014460   -0.00009970   -0.02962537
     atom   11 type  1   force =    -0.00088759   -0.00022897    0.00045100
     atom   12 type  1   force =    -0.00011645   -0.00005412   -0.00142713
     atom   13 type  1   force =    -0.00111337   -0.00039133    0.02973587
     atom   14 type  1   force =     0.00146804    0.00104751   -0.03149696
     atom   15 type  1   force =     0.00035970    0.00066254    0.00053213
     atom   16 type  1   force =     0.00071762    0.00052029    0.00055572
     atom   17 type  1   force =    -0.00246558   -0.00174789    0.03198294
     atom   18 type  1   force =    -0.00109361   -0.00013252   -0.02999673
     atom   19 type  1   force =     0.00036029    0.00022784    0.00001649
     atom   20 type  1   force =     0.00089936    0.00025311    0.00062650
     atom   21 type  1   force =    -0.00073843   -0.00091619    0.02972347
     atom   22 type  1   force =    -0.00048968   -0.00099703   -0.03001411
     atom   23 type  1   force =     0.00072586    0.00013142    0.00053461
     atom   24 type  1   force =     0.00053038    0.00076376    0.00065610
     atom   25 type  1   force =     0.00018676   -0.00002740    0.02896076
     atom   26 type  1   force =     0.00124271    0.00023376   -0.02994066
     atom   27 type  1   force =     0.00013210    0.00011879    0.00105713
     atom   28 type  1   force =    -0.00080240   -0.00019523    0.00054267
     atom   29 type  1   force =     0.00002273    0.00017203    0.02895854
     atom   30 type  1   force =    -0.00132690   -0.00093312   -0.03145604
     atom   31 type  1   force =     0.00015037    0.00008871    0.00104949
     atom   32 type  1   force =    -0.00061328   -0.00043861    0.00049067
     atom   33 type  1   force =     0.00010518    0.00007173    0.02965765
     atom   34 type  1   force =     0.00064277    0.00109971   -0.02993939
     atom   35 type  1   force =     0.00015265    0.00010294    0.00145817
     atom   36 type  1   force =    -0.00042662   -0.00068562    0.00055565
     atom   37 type  2   force =    -0.00002226    0.00001971   -0.00074990

     Total force =     0.129185     Total SCF correction =     0.002560
 !ASE

     Writing output data file calc.save
 
     init_run     :     36.77s CPU     44.09s WALL (       1 calls)
     electrons    :  30564.12s CPU  36187.86s WALL (       9 calls)
     update_pot   :     28.13s CPU     30.10s WALL (       8 calls)
     forces       :    360.92s CPU    374.45s WALL (       9 calls)

     Called by init_run:
     wfcinit      :     24.99s CPU     31.32s WALL (       1 calls)
     potinit      :      1.47s CPU      1.64s WALL (       1 calls)

     Called by electrons:
     c_bands      :  20820.89s CPU  25156.91s WALL (     377 calls)
     sum_band     :   6976.88s CPU   8042.00s WALL (     377 calls)
     v_of_rho     :    224.40s CPU    266.62s WALL (     386 calls)
     newd         :   2535.09s CPU   2702.96s WALL (     386 calls)
     mix_rho      :     47.22s CPU     57.55s WALL (     377 calls)

     Called by c_bands:
     init_us_2    :     92.10s CPU     99.18s WALL (    7640 calls)
     cegterg      :  20392.11s CPU  24707.99s WALL (    3770 calls)

     Called by *egterg:
     h_psi        :  11621.33s CPU  15182.99s WALL (   12561 calls)
     s_psi        :   1255.82s CPU   1303.04s WALL (   12561 calls)
     g_psi        :     44.22s CPU     45.52s WALL (    8781 calls)
     cdiaghg      :   3000.40s CPU   3072.66s WALL (   12471 calls)

     Called by h_psi:
     add_vuspsi   :   1271.08s CPU   1314.87s WALL (   12561 calls)

     General routines
     calbec       :   1976.25s CPU   2027.45s WALL (   16421 calls)
     fft          :    223.86s CPU    266.81s WALL (   12047 calls)
     ffts         :      2.77s CPU      3.96s WALL (    1526 calls)
     fftw         :   6664.01s CPU  10830.08s WALL ( 5250104 calls)
     interpolate  :     27.42s CPU     38.83s WALL (    1526 calls)
     davcio       :      0.00s CPU      0.52s WALL (      10 calls)
 
     Parallel routines
     fft_scatter  :   3646.27s CPU   6138.41s WALL ( 5263677 calls)
 
     PWSCF        :     8h37m CPU       10h11m WALL

 
   This run was terminated on:  14:27:51  24Feb2018            

=------------------------------------------------------------------------------=
   JOB DONE.
=------------------------------------------------------------------------------=
