  python dir          : /home/vossj/suncat/lib/python2.7/site-packages/espresso
  espresso dir        : /home/vossj/suncat/esdld/espresso-dynpy-beef/bin
  pseudo dir          : /home/alatimer/bin/psp/esp_psp_w_gbrvRu/
  ase-espresso py git : ffa2778-git



     Program PWSCF v.5.1rc2 (svn rev. ) starts on 22Feb2018 at  7:38:15 

     This program is part of the open-source Quantum ESPRESSO suite
     for quantum simulation of materials; please cite
         "P. Giannozzi et al., J. Phys.:Condens. Matter 21 395502 (2009);
          URL http://www.quantum-espresso.org", 
     in publications or presentations arising from this work. More details at
     http://www.quantum-espresso.org/quote

     Parallel version (MPI), running on    16 processors
     R & G space division:  proc/nbgrp/npool/nimage =      16
     Reading input from pw.inp
     Message from routine read_cards :
     DEPRECATED: no units specified in CELL_PARAMETERS card

     Current dimensions of program PWSCF are:
     Max number of different atomic species (ntypx) = 10
     Max number of k-points (npk) =  40000
     Max angular momentum in pseudopotentials (lmaxx) =  3
     Presently no symmetry can be used with electric field


     IMPORTANT: XC functional enforced from input :
     Exchange-correlation      = RPBE ( 1  4 28  4 0)
     Any further DFT definition will be discarded
     Please, verify this is what you really want

               file Ni.UPF: wavefunction(s)  3D renormalized

     Subspace diagonalization in iterative solution of the eigenvalue problem:
     a serial algorithm will be used

 
     Parallelization info
     --------------------
     sticks:   dense  smooth     PW     G-vecs:    dense   smooth      PW
     Min         630     252     68                99782    25206    3526
     Max         631     253     69                99791    25249    3527
     Sum       10093    4041   1091              1596589   403729   56419
 
     Generating pointlists ...
     new r_m :   0.4125 (alat units)  0.7795 (a.u.) for type    1
     new r_m :   0.4125 (alat units)  0.7795 (a.u.) for type    2


     bravais-lattice index     =            0
     lattice parameter (alat)  =       1.8897  a.u.
     unit-cell volume          =   10207.8337 (a.u.)^3
     number of atoms/cell      =           37
     number of atomic types    =            2
     number of electrons       =       364.00
     number of Kohn-Sham states=          282
     kinetic-energy cutoff     =      44.0992  Ry
     charge density cutoff     =     440.9919  Ry
     convergence threshold     =      7.3E-07
     mixing beta               =       0.1000
     number of iterations used =           10  plain     mixing
     Exchange-correlation      = RPBE ( 1  4 28  4 0)
     nstep                     =           50


     celldm(1)=   1.889726  celldm(2)=   0.000000  celldm(3)=   0.000000
     celldm(4)=   0.000000  celldm(5)=   0.000000  celldm(6)=   0.000000

     crystal axes: (cart. coord. in units of alat)
               a(1) = (  13.073539   0.000000   0.000000 )  
               a(2) = (  -4.357846   6.162925   0.000000 )  
               a(3) = (   0.000000   0.000000  18.774005 )  

     reciprocal axes: (cart. coord. in units 2 pi/alat)
               b(1) = (  0.076490  0.054087  0.000000 )  
               b(2) = (  0.000000  0.162261  0.000000 )  
               b(3) = (  0.000000  0.000000  0.053265 )  


     PseudoPot. # 1 for Ni read from file:
     /home/alatimer/bin/psp/esp_psp_w_gbrvRu/Ni.UPF
     MD5 check sum: 8b2449ee0060d9c33484ccd47bb60870
     Pseudo is Ultrasoft + core correction, Zval = 10.0
     Generated using "atomic" code by A. Dal Corso  v.5.0.2 svn rev. 9415
     Using radial grid of 1195 points,  6 beta functions with: 
                l(1) =   0
                l(2) =   0
                l(3) =   1
                l(4) =   1
                l(5) =   2
                l(6) =   2
     Q(r) pseudized with 0 coefficients 


     PseudoPot. # 2 for  C read from file:
     /home/alatimer/bin/psp/esp_psp_w_gbrvRu/C.UPF
     MD5 check sum: ab446d787031eba755f1d5ee46644bb0
     Pseudo is Ultrasoft + core correction, Zval =  4.0
     Generated using "atomic" code by A. Dal Corso  v.5.0.2 svn rev. 9415
     Using radial grid of 1073 points,  4 beta functions with: 
                l(1) =   0
                l(2) =   0
                l(3) =   1
                l(4) =   1
     Q(r) pseudized with 0 coefficients 


     atomic species   valence    mass     pseudopotential
        Ni1           10.00    58.69340     Ni( 1.00)
        C1             4.00    12.01100      C( 1.00)

     Starting magnetic structure 
     atomic species   magnetization
        Ni1          0.300
        C1           0.750

     No symmetry found



   Cartesian axes

     site n.     atom                  positions (alat units)
         1           Ni1 tau(   1) = (   0.0000000   0.0000000   7.5000000  )
         2           Ni1 tau(   2) = (   2.1789231   0.0000000   8.7580018  )
         3           Ni1 tau(   3) = (   0.0000000   0.0000000  10.0160037  )
         4           Ni1 tau(   4) = (   2.1789231   0.0000000  11.2740055  )
         5           Ni1 tau(   5) = (  -1.4526154   2.0543084   7.5000000  )
         6           Ni1 tau(   6) = (   0.7263077   2.0543084   8.7580018  )
         7           Ni1 tau(   7) = (  -1.4526154   2.0543084  10.0160037  )
         8           Ni1 tau(   8) = (   0.7263077   2.0543084  11.2740055  )
         9           Ni1 tau(   9) = (  -2.9052308   4.1086168   7.5000000  )
        10           Ni1 tau(  10) = (  -0.7263077   4.1086168   8.7580018  )
        11           Ni1 tau(  11) = (  -2.9052308   4.1086168  10.0160037  )
        12           Ni1 tau(  12) = (  -0.7263077   4.1086168  11.2740055  )
        13           Ni1 tau(  13) = (   4.3578462   0.0000000   7.5000000  )
        14           Ni1 tau(  14) = (   6.5367693   0.0000000   8.7580018  )
        15           Ni1 tau(  15) = (   4.3578462   0.0000000  10.0160037  )
        16           Ni1 tau(  16) = (   6.5367693   0.0000000  11.2740055  )
        17           Ni1 tau(  17) = (   2.9052308   2.0543084   7.5000000  )
        18           Ni1 tau(  18) = (   5.0841539   2.0543084   8.7580018  )
        19           Ni1 tau(  19) = (   2.9052308   2.0543084  10.0160037  )
        20           Ni1 tau(  20) = (   5.0841539   2.0543084  11.2740055  )
        21           Ni1 tau(  21) = (   1.4526154   4.1086168   7.5000000  )
        22           Ni1 tau(  22) = (   3.6315385   4.1086168   8.7580018  )
        23           Ni1 tau(  23) = (   1.4526154   4.1086168  10.0160037  )
        24           Ni1 tau(  24) = (   3.6315385   4.1086168  11.2740055  )
        25           Ni1 tau(  25) = (   8.7156924   0.0000000   7.5000000  )
        26           Ni1 tau(  26) = (  10.8946154   0.0000000   8.7580018  )
        27           Ni1 tau(  27) = (   8.7156924   0.0000000  10.0160037  )
        28           Ni1 tau(  28) = (  10.8946154   0.0000000  11.2740055  )
        29           Ni1 tau(  29) = (   7.2630770   2.0543084   7.5000000  )
        30           Ni1 tau(  30) = (   9.4420001   2.0543084   8.7580018  )
        31           Ni1 tau(  31) = (   7.2630770   2.0543084  10.0160037  )
        32           Ni1 tau(  32) = (   9.4420001   2.0543084  11.2740055  )
        33           Ni1 tau(  33) = (   5.8104616   4.1086168   7.5000000  )
        34           Ni1 tau(  34) = (   7.9893847   4.1086168   8.7580018  )
        35           Ni1 tau(  35) = (   5.8104616   4.1086168  10.0160037  )
        36           Ni1 tau(  36) = (   7.9893847   4.1086168  11.2740055  )
        37           C1  tau(  37) = (   1.4459851   1.1346310  12.2416098  )

     number of k points=    10  Fermi-Dirac smearing, width (Ry)=  0.0073
                       cart. coord. in units 2pi/alat
        k(    1) = (   0.0000000   0.0000000   0.0000000), wk =   0.1111111
        k(    2) = (   0.0000000   0.0540869   0.0000000), wk =   0.2222222
        k(    3) = (   0.0254968   0.0180290   0.0000000), wk =   0.2222222
        k(    4) = (   0.0254968   0.0721158   0.0000000), wk =   0.2222222
        k(    5) = (   0.0254968  -0.0360579   0.0000000), wk =   0.2222222
        k(    6) = (   0.0000000   0.0000000   0.0000000), wk =   0.1111111
        k(    7) = (   0.0000000   0.0540869   0.0000000), wk =   0.2222222
        k(    8) = (   0.0254968   0.0180290   0.0000000), wk =   0.2222222
        k(    9) = (   0.0254968   0.0721158   0.0000000), wk =   0.2222222
        k(   10) = (   0.0254968  -0.0360579   0.0000000), wk =   0.2222222

     Dense  grid:  1596589 G-vectors     FFT dimensions: ( 180,  96, 240)

     Smooth grid:   403729 G-vectors     FFT dimensions: ( 108,  64, 150)

     Largest allocated arrays     est. size (Mb)     dimensions
        Kohn-Sham Wavefunctions        13.69 Mb     (    3181,  282)
        NL pseudopotentials            31.84 Mb     (    3181,  656)
        Each V/rho on FFT grid          7.91 Mb     (  259200,   2)
        Each G-vector array             0.76 Mb     (   99791)
        G-vector shells                 0.33 Mb     (   42988)
     Largest temporary arrays     est. size (Mb)     dimensions
        Auxiliary wavefunctions        54.75 Mb     (    3181, 1128)
        Each subspace H/S matrix       19.42 Mb     (    1128, 1128)
        Each <psi_i|beta_j> matrix      2.82 Mb     (     656,  282)
        Arrays for rho mixing          39.55 Mb     (  259200,   10)

     Initial potential from superposition of free atoms
     Check: negative starting charge=(component1):   -0.000513
     Check: negative starting charge=(component2):   -0.000280

     starting charge  363.99092, renormalised to  364.00000

     negative rho (up, down):  5.130E-04 2.797E-04
 
     Adding external electric field

     Computed dipole along edir(3) : 
        Dipole               -0.0003 Ry au,         -0.0008 Debye
        Dipole field         -0.0000 Ry au
 
        Potential amp.        0.0000 Ry
        Total length         34.5908 bohr
 
 
     Adding external electric field

     Computed dipole along edir(3) : 
        Dipole               -0.0003 Ry au,         -0.0008 Debye
        Dipole field         -0.0000 Ry au
 
        Potential amp.        0.0000 Ry
        Total length         34.5908 bohr
 
     Starting wfc are  328 randomized atomic wfcs

     total cpu time spent up to now is       52.9 secs

     Self-consistent Calculation

     iteration #  1     ecut=    44.10 Ry     beta=0.10
     Davidson diagonalization with overlap
     ethr =  1.00E-02,  avg # of iterations =  6.9

     negative rho (up, down):  4.751E-04 2.575E-04
 
     Adding external electric field

     Computed dipole along edir(3) : 
        Dipole               -0.7827 Ry au,         -1.9894 Debye
        Dipole field         -0.0010 Ry au
 
        Potential amp.        0.0667 Ry
        Total length         34.5908 bohr
 
 
     Adding external electric field

     Computed dipole along edir(3) : 
        Dipole               -0.7827 Ry au,         -1.9894 Debye
        Dipole field         -0.0010 Ry au
 
        Potential amp.        0.0667 Ry
        Total length         34.5908 bohr
 
 
     Magnetic moment per site:
     atom:    1    charge:    3.9528    magn:    1.1283    constr:    0.0000
     atom:    2    charge:    3.9781    magn:    1.1055    constr:    0.0000
     atom:    3    charge:    3.9784    magn:    1.1061    constr:    0.0000
     atom:    4    charge:    3.9783    magn:    1.1030    constr:    0.0000
     atom:    5    charge:    3.9529    magn:    1.1286    constr:    0.0000
     atom:    6    charge:    3.9783    magn:    1.1054    constr:    0.0000
     atom:    7    charge:    3.9780    magn:    1.1061    constr:    0.0000
     atom:    8    charge:    3.9820    magn:    1.1029    constr:    0.0000
     atom:    9    charge:    3.9528    magn:    1.1286    constr:    0.0000
     atom:   10    charge:    3.9747    magn:    1.1087    constr:    0.0000
     atom:   11    charge:    3.9777    magn:    1.1064    constr:    0.0000
     atom:   12    charge:    3.9585    magn:    1.1232    constr:    0.0000
     atom:   13    charge:    3.9529    magn:    1.1286    constr:    0.0000
     atom:   14    charge:    3.9745    magn:    1.1091    constr:    0.0000
     atom:   15    charge:    3.9776    magn:    1.1065    constr:    0.0000
     atom:   16    charge:    3.9528    magn:    1.1282    constr:    0.0000
     atom:   17    charge:    3.9528    magn:    1.1283    constr:    0.0000
     atom:   18    charge:    3.9745    magn:    1.1092    constr:    0.0000
     atom:   19    charge:    3.9784    magn:    1.1063    constr:    0.0000
     atom:   20    charge:    3.9528    magn:    1.1281    constr:    0.0000
     atom:   21    charge:    3.9529    magn:    1.1286    constr:    0.0000
     atom:   22    charge:    3.9745    magn:    1.1091    constr:    0.0000
     atom:   23    charge:    3.9780    magn:    1.1062    constr:    0.0000
     atom:   24    charge:    3.9528    magn:    1.1282    constr:    0.0000
     atom:   25    charge:    3.9515    magn:    1.1296    constr:    0.0000
     atom:   26    charge:    3.9745    magn:    1.1091    constr:    0.0000
     atom:   27    charge:    3.9745    magn:    1.1094    constr:    0.0000
     atom:   28    charge:    3.9527    magn:    1.1282    constr:    0.0000
     atom:   29    charge:    3.9511    magn:    1.1299    constr:    0.0000
     atom:   30    charge:    3.9745    magn:    1.1090    constr:    0.0000
     atom:   31    charge:    3.9746    magn:    1.1094    constr:    0.0000
     atom:   32    charge:    3.9528    magn:    1.1282    constr:    0.0000
     atom:   33    charge:    3.9521    magn:    1.1289    constr:    0.0000
     atom:   34    charge:    3.9745    magn:    1.1092    constr:    0.0000
     atom:   35    charge:    3.9743    magn:    1.1091    constr:    0.0000
     atom:   36    charge:    3.9528    magn:    1.1282    constr:    0.0000
     atom:   37    charge:    0.6058    magn:    0.4056    constr:    0.0000

     total cpu time spent up to now is      228.9 secs

     total energy              =   -3631.66596654 Ry
     Harris-Foulkes estimate   =   -3632.87485552 Ry
     estimated scf accuracy    <      12.19017141 Ry

     total magnetization       =    35.84 Bohr mag/cell
     absolute magnetization    =    35.85 Bohr mag/cell

     iteration #  2     ecut=    44.10 Ry     beta=0.10
     Davidson diagonalization with overlap
     ethr =  3.35E-03,  avg # of iterations =  1.0

     negative rho (up, down):  4.693E-04 2.814E-04
 
     Adding external electric field

     Computed dipole along edir(3) : 
        Dipole                0.2677 Ry au,          0.6803 Debye
        Dipole field          0.0003 Ry au
 
        Potential amp.       -0.0228 Ry
        Total length         34.5908 bohr
 
 
     Adding external electric field

     Computed dipole along edir(3) : 
        Dipole                0.2677 Ry au,          0.6803 Debye
        Dipole field          0.0003 Ry au
 
        Potential amp.       -0.0228 Ry
        Total length         34.5908 bohr
 
 
     Magnetic moment per site:
     atom:    1    charge:    3.9700    magn:    1.1003    constr:    0.0000
     atom:    2    charge:    3.9669    magn:    1.0968    constr:    0.0000
     atom:    3    charge:    3.9581    magn:    1.1066    constr:    0.0000
     atom:    4    charge:    3.9619    magn:    1.0938    constr:    0.0000
     atom:    5    charge:    3.9705    magn:    1.1003    constr:    0.0000
     atom:    6    charge:    3.9675    magn:    1.0962    constr:    0.0000
     atom:    7    charge:    3.9618    magn:    1.1027    constr:    0.0000
     atom:    8    charge:    3.9711    magn:    1.0859    constr:    0.0000
     atom:    9    charge:    3.9704    magn:    1.1002    constr:    0.0000
     atom:   10    charge:    3.9681    magn:    1.0964    constr:    0.0000
     atom:   11    charge:    3.9617    magn:    1.1028    constr:    0.0000
     atom:   12    charge:    3.9585    magn:    1.1101    constr:    0.0000
     atom:   13    charge:    3.9704    magn:    1.1002    constr:    0.0000
     atom:   14    charge:    3.9749    magn:    1.0906    constr:    0.0000
     atom:   15    charge:    3.9616    magn:    1.1030    constr:    0.0000
     atom:   16    charge:    3.9671    magn:    1.1025    constr:    0.0000
     atom:   17    charge:    3.9700    magn:    1.1003    constr:    0.0000
     atom:   18    charge:    3.9747    magn:    1.0910    constr:    0.0000
     atom:   19    charge:    3.9580    magn:    1.1069    constr:    0.0000
     atom:   20    charge:    3.9666    magn:    1.1028    constr:    0.0000
     atom:   21    charge:    3.9704    magn:    1.1003    constr:    0.0000
     atom:   22    charge:    3.9747    magn:    1.0910    constr:    0.0000
     atom:   23    charge:    3.9616    magn:    1.1029    constr:    0.0000
     atom:   24    charge:    3.9665    magn:    1.1029    constr:    0.0000
     atom:   25    charge:    3.9712    magn:    1.0993    constr:    0.0000
     atom:   26    charge:    3.9747    magn:    1.0910    constr:    0.0000
     atom:   27    charge:    3.9723    magn:    1.0937    constr:    0.0000
     atom:   28    charge:    3.9665    magn:    1.1029    constr:    0.0000
     atom:   29    charge:    3.9709    magn:    1.0996    constr:    0.0000
     atom:   30    charge:    3.9749    magn:    1.0906    constr:    0.0000
     atom:   31    charge:    3.9723    magn:    1.0937    constr:    0.0000
     atom:   32    charge:    3.9672    magn:    1.1024    constr:    0.0000
     atom:   33    charge:    3.9716    magn:    1.0988    constr:    0.0000
     atom:   34    charge:    3.9747    magn:    1.0910    constr:    0.0000
     atom:   35    charge:    3.9720    magn:    1.0934    constr:    0.0000
     atom:   36    charge:    3.9666    magn:    1.1028    constr:    0.0000
     atom:   37    charge:    0.6092    magn:    0.3986    constr:    0.0000

     total cpu time spent up to now is      338.1 secs

     total energy              =   -3631.56764169 Ry
     Harris-Foulkes estimate   =   -3633.09420401 Ry
     estimated scf accuracy    <      30.66155671 Ry

     total magnetization       =    37.21 Bohr mag/cell
     absolute magnetization    =    37.24 Bohr mag/cell

     iteration #  3     ecut=    44.10 Ry     beta=0.10
     Davidson diagonalization with overlap
     ethr =  3.35E-03,  avg # of iterations =  1.0

     negative rho (up, down):  4.670E-04 3.036E-04
 
     Adding external electric field

     Computed dipole along edir(3) : 
        Dipole               -0.5482 Ry au,         -1.3933 Debye
        Dipole field         -0.0007 Ry au
 
        Potential amp.        0.0467 Ry
        Total length         34.5908 bohr
 
 
     Adding external electric field

     Computed dipole along edir(3) : 
        Dipole               -0.5482 Ry au,         -1.3933 Debye
        Dipole field         -0.0007 Ry au
 
        Potential amp.        0.0467 Ry
        Total length         34.5908 bohr
 
 
     Magnetic moment per site:
     atom:    1    charge:    3.9788    magn:    1.0747    constr:    0.0000
     atom:    2    charge:    3.9672    magn:    1.0746    constr:    0.0000
     atom:    3    charge:    3.9612    magn:    1.0834    constr:    0.0000
     atom:    4    charge:    3.9671    magn:    1.0659    constr:    0.0000
     atom:    5    charge:    3.9786    magn:    1.0753    constr:    0.0000
     atom:    6    charge:    3.9674    magn:    1.0743    constr:    0.0000
     atom:    7    charge:    3.9647    magn:    1.0790    constr:    0.0000
     atom:    8    charge:    3.9749    magn:    1.0561    constr:    0.0000
     atom:    9    charge:    3.9787    magn:    1.0750    constr:    0.0000
     atom:   10    charge:    3.9690    magn:    1.0738    constr:    0.0000
     atom:   11    charge:    3.9650    magn:    1.0789    constr:    0.0000
     atom:   12    charge:    3.9756    magn:    1.0781    constr:    0.0000
     atom:   13    charge:    3.9787    magn:    1.0750    constr:    0.0000
     atom:   14    charge:    3.9632    magn:    1.0789    constr:    0.0000
     atom:   15    charge:    3.9649    magn:    1.0790    constr:    0.0000
     atom:   16    charge:    3.9821    magn:    1.0713    constr:    0.0000
     atom:   17    charge:    3.9788    magn:    1.0747    constr:    0.0000
     atom:   18    charge:    3.9635    magn:    1.0787    constr:    0.0000
     atom:   19    charge:    3.9611    magn:    1.0838    constr:    0.0000
     atom:   20    charge:    3.9817    magn:    1.0716    constr:    0.0000
     atom:   21    charge:    3.9786    magn:    1.0753    constr:    0.0000
     atom:   22    charge:    3.9634    magn:    1.0788    constr:    0.0000
     atom:   23    charge:    3.9646    magn:    1.0792    constr:    0.0000
     atom:   24    charge:    3.9816    magn:    1.0718    constr:    0.0000
     atom:   25    charge:    3.9705    magn:    1.0827    constr:    0.0000
     atom:   26    charge:    3.9634    magn:    1.0788    constr:    0.0000
     atom:   27    charge:    3.9646    magn:    1.0786    constr:    0.0000
     atom:   28    charge:    3.9816    magn:    1.0717    constr:    0.0000
     atom:   29    charge:    3.9706    magn:    1.0827    constr:    0.0000
     atom:   30    charge:    3.9631    magn:    1.0789    constr:    0.0000
     atom:   31    charge:    3.9646    magn:    1.0787    constr:    0.0000
     atom:   32    charge:    3.9821    magn:    1.0713    constr:    0.0000
     atom:   33    charge:    3.9706    magn:    1.0825    constr:    0.0000
     atom:   34    charge:    3.9635    magn:    1.0787    constr:    0.0000
     atom:   35    charge:    3.9646    magn:    1.0778    constr:    0.0000
     atom:   36    charge:    3.9818    magn:    1.0716    constr:    0.0000
     atom:   37    charge:    0.6155    magn:    0.3917    constr:    0.0000

     total cpu time spent up to now is      447.3 secs

     total energy              =   -3631.98614246 Ry
     Harris-Foulkes estimate   =   -3632.76981609 Ry
     estimated scf accuracy    <      23.73361305 Ry

     total magnetization       =    38.27 Bohr mag/cell
     absolute magnetization    =    38.33 Bohr mag/cell

     iteration #  4     ecut=    44.10 Ry     beta=0.10
     Davidson diagonalization with overlap
     ethr =  3.35E-03,  avg # of iterations =  1.2

     negative rho (up, down):  4.636E-04 3.082E-04
 
     Adding external electric field

     Computed dipole along edir(3) : 
        Dipole                0.1365 Ry au,          0.3469 Debye
        Dipole field          0.0002 Ry au
 
        Potential amp.       -0.0116 Ry
        Total length         34.5908 bohr
 
 
     Adding external electric field

     Computed dipole along edir(3) : 
        Dipole                0.1365 Ry au,          0.3469 Debye
        Dipole field          0.0002 Ry au
 
        Potential amp.       -0.0116 Ry
        Total length         34.5908 bohr
 
 
     Magnetic moment per site:
     atom:    1    charge:    3.9920    magn:    1.0261    constr:    0.0000
     atom:    2    charge:    3.9709    magn:    1.0288    constr:    0.0000
     atom:    3    charge:    3.9703    magn:    1.0361    constr:    0.0000
     atom:    4    charge:    3.9784    magn:    1.0083    constr:    0.0000
     atom:    5    charge:    3.9905    magn:    1.0280    constr:    0.0000
     atom:    6    charge:    3.9704    magn:    1.0290    constr:    0.0000
     atom:    7    charge:    3.9699    magn:    1.0337    constr:    0.0000
     atom:    8    charge:    3.9809    magn:    0.9960    constr:    0.0000
     atom:    9    charge:    3.9906    magn:    1.0277    constr:    0.0000
     atom:   10    charge:    3.9680    magn:    1.0321    constr:    0.0000
     atom:   11    charge:    3.9701    magn:    1.0336    constr:    0.0000
     atom:   12    charge:    3.9879    magn:    1.0321    constr:    0.0000
     atom:   13    charge:    3.9905    magn:    1.0277    constr:    0.0000
     atom:   14    charge:    3.9616    magn:    1.0384    constr:    0.0000
     atom:   15    charge:    3.9701    magn:    1.0338    constr:    0.0000
     atom:   16    charge:    3.9783    magn:    1.0382    constr:    0.0000
     atom:   17    charge:    3.9920    magn:    1.0262    constr:    0.0000
     atom:   18    charge:    3.9625    magn:    1.0376    constr:    0.0000
     atom:   19    charge:    3.9701    magn:    1.0366    constr:    0.0000
     atom:   20    charge:    3.9786    magn:    1.0380    constr:    0.0000
     atom:   21    charge:    3.9905    magn:    1.0280    constr:    0.0000
     atom:   22    charge:    3.9625    magn:    1.0377    constr:    0.0000
     atom:   23    charge:    3.9698    magn:    1.0340    constr:    0.0000
     atom:   24    charge:    3.9785    magn:    1.0381    constr:    0.0000
     atom:   25    charge:    3.9896    magn:    1.0301    constr:    0.0000
     atom:   26    charge:    3.9625    magn:    1.0377    constr:    0.0000
     atom:   27    charge:    3.9608    magn:    1.0406    constr:    0.0000
     atom:   28    charge:    3.9787    magn:    1.0379    constr:    0.0000
     atom:   29    charge:    3.9899    magn:    1.0299    constr:    0.0000
     atom:   30    charge:    3.9616    magn:    1.0384    constr:    0.0000
     atom:   31    charge:    3.9607    magn:    1.0408    constr:    0.0000
     atom:   32    charge:    3.9783    magn:    1.0382    constr:    0.0000
     atom:   33    charge:    3.9895    magn:    1.0301    constr:    0.0000
     atom:   34    charge:    3.9625    magn:    1.0376    constr:    0.0000
     atom:   35    charge:    3.9613    magn:    1.0390    constr:    0.0000
     atom:   36    charge:    3.9787    magn:    1.0379    constr:    0.0000
     atom:   37    charge:    0.6259    magn:    0.3769    constr:    0.0000

     total cpu time spent up to now is      556.8 secs

     total energy              =   -3632.21288966 Ry
     Harris-Foulkes estimate   =   -3632.61488780 Ry
     estimated scf accuracy    <      13.91872782 Ry

     total magnetization       =    37.55 Bohr mag/cell
     absolute magnetization    =    37.62 Bohr mag/cell

     iteration #  5     ecut=    44.10 Ry     beta=0.10
     Davidson diagonalization with overlap
     ethr =  3.35E-03,  avg # of iterations =  1.2

     negative rho (up, down):  4.593E-04 3.092E-04
 
     Adding external electric field

     Computed dipole along edir(3) : 
        Dipole               -0.5027 Ry au,         -1.2778 Debye
        Dipole field         -0.0006 Ry au
 
        Potential amp.        0.0428 Ry
        Total length         34.5908 bohr
 
 
     Adding external electric field

     Computed dipole along edir(3) : 
        Dipole               -0.5027 Ry au,         -1.2778 Debye
        Dipole field         -0.0006 Ry au
 
        Potential amp.        0.0428 Ry
        Total length         34.5908 bohr
 
 
     Magnetic moment per site:
     atom:    1    charge:    3.9894    magn:    0.9857    constr:    0.0000
     atom:    2    charge:    3.9647    magn:    0.9852    constr:    0.0000
     atom:    3    charge:    3.9735    magn:    0.9870    constr:    0.0000
     atom:    4    charge:    3.9831    magn:    0.9461    constr:    0.0000
     atom:    5    charge:    3.9895    magn:    0.9862    constr:    0.0000
     atom:    6    charge:    3.9647    magn:    0.9848    constr:    0.0000
     atom:    7    charge:    3.9721    magn:    0.9843    constr:    0.0000
     atom:    8    charge:    3.9827    magn:    0.9283    constr:    0.0000
     atom:    9    charge:    3.9893    magn:    0.9860    constr:    0.0000
     atom:   10    charge:    3.9606    magn:    0.9899    constr:    0.0000
     atom:   11    charge:    3.9719    magn:    0.9845    constr:    0.0000
     atom:   12    charge:    3.9929    magn:    0.9862    constr:    0.0000
     atom:   13    charge:    3.9892    magn:    0.9861    constr:    0.0000
     atom:   14    charge:    3.9661    magn:    0.9869    constr:    0.0000
     atom:   15    charge:    3.9719    magn:    0.9848    constr:    0.0000
     atom:   16    charge:    3.9899    magn:    0.9856    constr:    0.0000
     atom:   17    charge:    3.9894    magn:    0.9857    constr:    0.0000
     atom:   18    charge:    3.9667    magn:    0.9862    constr:    0.0000
     atom:   19    charge:    3.9733    magn:    0.9876    constr:    0.0000
     atom:   20    charge:    3.9903    magn:    0.9853    constr:    0.0000
     atom:   21    charge:    3.9895    magn:    0.9862    constr:    0.0000
     atom:   22    charge:    3.9669    magn:    0.9861    constr:    0.0000
     atom:   23    charge:    3.9721    magn:    0.9846    constr:    0.0000
     atom:   24    charge:    3.9904    magn:    0.9853    constr:    0.0000
     atom:   25    charge:    4.0052    magn:    0.9738    constr:    0.0000
     atom:   26    charge:    3.9669    magn:    0.9861    constr:    0.0000
     atom:   27    charge:    3.9688    magn:    0.9864    constr:    0.0000
     atom:   28    charge:    3.9905    magn:    0.9851    constr:    0.0000
     atom:   29    charge:    4.0052    magn:    0.9738    constr:    0.0000
     atom:   30    charge:    3.9661    magn:    0.9869    constr:    0.0000
     atom:   31    charge:    3.9686    magn:    0.9869    constr:    0.0000
     atom:   32    charge:    3.9900    magn:    0.9855    constr:    0.0000
     atom:   33    charge:    4.0047    magn:    0.9742    constr:    0.0000
     atom:   34    charge:    3.9667    magn:    0.9862    constr:    0.0000
     atom:   35    charge:    3.9693    magn:    0.9844    constr:    0.0000
     atom:   36    charge:    3.9904    magn:    0.9851    constr:    0.0000
     atom:   37    charge:    0.6367    magn:    0.3588    constr:    0.0000

     total cpu time spent up to now is      666.6 secs

     total energy              =   -3632.29129282 Ry
     Harris-Foulkes estimate   =   -3632.91404311 Ry
     estimated scf accuracy    <      28.56609471 Ry

     total magnetization       =    37.81 Bohr mag/cell
     absolute magnetization    =    37.93 Bohr mag/cell

     iteration #  6     ecut=    44.10 Ry     beta=0.10
     Davidson diagonalization with overlap
     ethr =  3.35E-03,  avg # of iterations =  1.4

     negative rho (up, down):  4.539E-04 3.049E-04
 
     Adding external electric field

     Computed dipole along edir(3) : 
        Dipole               -0.4146 Ry au,         -1.0539 Debye
        Dipole field         -0.0005 Ry au
 
        Potential amp.        0.0353 Ry
        Total length         34.5908 bohr
 
 
     Adding external electric field

     Computed dipole along edir(3) : 
        Dipole               -0.4146 Ry au,         -1.0539 Debye
        Dipole field         -0.0005 Ry au
 
        Potential amp.        0.0353 Ry
        Total length         34.5908 bohr
 
 
     Magnetic moment per site:
     atom:    1    charge:    3.9989    magn:    0.9335    constr:    0.0000
     atom:    2    charge:    3.9692    magn:    0.9333    constr:    0.0000
     atom:    3    charge:    3.9710    magn:    0.9428    constr:    0.0000
     atom:    4    charge:    3.9787    magn:    0.8876    constr:    0.0000
     atom:    5    charge:    4.0002    magn:    0.9330    constr:    0.0000
     atom:    6    charge:    3.9695    magn:    0.9325    constr:    0.0000
     atom:    7    charge:    3.9726    magn:    0.9362    constr:    0.0000
     atom:    8    charge:    3.9788    magn:    0.8617    constr:    0.0000
     atom:    9    charge:    4.0000    magn:    0.9327    constr:    0.0000
     atom:   10    charge:    3.9664    magn:    0.9377    constr:    0.0000
     atom:   11    charge:    3.9719    magn:    0.9370    constr:    0.0000
     atom:   12    charge:    3.9910    magn:    0.9448    constr:    0.0000
     atom:   13    charge:    4.0000    magn:    0.9327    constr:    0.0000
     atom:   14    charge:    3.9710    magn:    0.9356    constr:    0.0000
     atom:   15    charge:    3.9719    magn:    0.9374    constr:    0.0000
     atom:   16    charge:    3.9969    magn:    0.9361    constr:    0.0000
     atom:   17    charge:    3.9989    magn:    0.9335    constr:    0.0000
     atom:   18    charge:    3.9708    magn:    0.9355    constr:    0.0000
     atom:   19    charge:    3.9709    magn:    0.9435    constr:    0.0000
     atom:   20    charge:    3.9955    magn:    0.9374    constr:    0.0000
     atom:   21    charge:    4.0002    magn:    0.9330    constr:    0.0000
     atom:   22    charge:    3.9711    magn:    0.9355    constr:    0.0000
     atom:   23    charge:    3.9726    magn:    0.9366    constr:    0.0000
     atom:   24    charge:    3.9955    magn:    0.9375    constr:    0.0000
     atom:   25    charge:    3.9956    magn:    0.9379    constr:    0.0000
     atom:   26    charge:    3.9710    magn:    0.9355    constr:    0.0000
     atom:   27    charge:    3.9715    magn:    0.9374    constr:    0.0000
     atom:   28    charge:    3.9955    magn:    0.9375    constr:    0.0000
     atom:   29    charge:    3.9955    magn:    0.9380    constr:    0.0000
     atom:   30    charge:    3.9710    magn:    0.9356    constr:    0.0000
     atom:   31    charge:    3.9715    magn:    0.9378    constr:    0.0000
     atom:   32    charge:    3.9969    magn:    0.9361    constr:    0.0000
     atom:   33    charge:    3.9955    magn:    0.9382    constr:    0.0000
     atom:   34    charge:    3.9707    magn:    0.9356    constr:    0.0000
     atom:   35    charge:    3.9712    magn:    0.9356    constr:    0.0000
     atom:   36    charge:    3.9955    magn:    0.9374    constr:    0.0000
     atom:   37    charge:    0.6448    magn:    0.3392    constr:    0.0000

     total cpu time spent up to now is      777.2 secs

     total energy              =   -3632.71098538 Ry
     Harris-Foulkes estimate   =   -3632.86116447 Ry
     estimated scf accuracy    <       9.47506562 Ry

     total magnetization       =    37.43 Bohr mag/cell
     absolute magnetization    =    37.64 Bohr mag/cell

     iteration #  7     ecut=    44.10 Ry     beta=0.10
     Davidson diagonalization with overlap
     ethr =  2.60E-03,  avg # of iterations =  1.9

     negative rho (up, down):  4.455E-04 3.025E-04
 
     Adding external electric field

     Computed dipole along edir(3) : 
        Dipole               -0.3921 Ry au,         -0.9965 Debye
        Dipole field         -0.0005 Ry au
 
        Potential amp.        0.0334 Ry
        Total length         34.5908 bohr
 
 
     Adding external electric field

     Computed dipole along edir(3) : 
        Dipole               -0.3921 Ry au,         -0.9965 Debye
        Dipole field         -0.0005 Ry au
 
        Potential amp.        0.0334 Ry
        Total length         34.5908 bohr
 
 
     Magnetic moment per site:
     atom:    1    charge:    3.9957    magn:    0.8987    constr:    0.0000
     atom:    2    charge:    3.9718    magn:    0.8940    constr:    0.0000
     atom:    3    charge:    3.9666    magn:    0.9104    constr:    0.0000
     atom:    4    charge:    3.9755    magn:    0.8368    constr:    0.0000
     atom:    5    charge:    3.9929    magn:    0.9014    constr:    0.0000
     atom:    6    charge:    3.9717    magn:    0.8933    constr:    0.0000
     atom:    7    charge:    3.9679    magn:    0.9028    constr:    0.0000
     atom:    8    charge:    3.9746    magn:    0.8056    constr:    0.0000
     atom:    9    charge:    3.9937    magn:    0.9001    constr:    0.0000
     atom:   10    charge:    3.9723    magn:    0.8970    constr:    0.0000
     atom:   11    charge:    3.9680    magn:    0.9031    constr:    0.0000
     atom:   12    charge:    3.9989    magn:    0.9013    constr:    0.0000
     atom:   13    charge:    3.9936    magn:    0.9002    constr:    0.0000
     atom:   14    charge:    3.9671    magn:    0.9023    constr:    0.0000
     atom:   15    charge:    3.9679    magn:    0.9036    constr:    0.0000
     atom:   16    charge:    3.9946    magn:    0.9009    constr:    0.0000
     atom:   17    charge:    3.9955    magn:    0.8988    constr:    0.0000
     atom:   18    charge:    3.9682    magn:    0.9012    constr:    0.0000
     atom:   19    charge:    3.9664    magn:    0.9114    constr:    0.0000
     atom:   20    charge:    3.9951    magn:    0.9008    constr:    0.0000
     atom:   21    charge:    3.9928    magn:    0.9014    constr:    0.0000
     atom:   22    charge:    3.9681    magn:    0.9015    constr:    0.0000
     atom:   23    charge:    3.9677    magn:    0.9034    constr:    0.0000
     atom:   24    charge:    3.9948    magn:    0.9012    constr:    0.0000
     atom:   25    charge:    3.9954    magn:    0.9004    constr:    0.0000
     atom:   26    charge:    3.9682    magn:    0.9014    constr:    0.0000
     atom:   27    charge:    3.9678    magn:    0.9039    constr:    0.0000
     atom:   28    charge:    3.9949    magn:    0.9010    constr:    0.0000
     atom:   29    charge:    3.9955    magn:    0.9003    constr:    0.0000
     atom:   30    charge:    3.9672    magn:    0.9023    constr:    0.0000
     atom:   31    charge:    3.9681    magn:    0.9042    constr:    0.0000
     atom:   32    charge:    3.9947    magn:    0.9007    constr:    0.0000
     atom:   33    charge:    3.9961    magn:    0.9001    constr:    0.0000
     atom:   34    charge:    3.9683    magn:    0.9011    constr:    0.0000
     atom:   35    charge:    3.9688    magn:    0.9007    constr:    0.0000
     atom:   36    charge:    3.9952    magn:    0.9007    constr:    0.0000
     atom:   37    charge:    0.6463    magn:    0.3208    constr:    0.0000

     total cpu time spent up to now is      889.7 secs

     total energy              =   -3633.01755448 Ry
     Harris-Foulkes estimate   =   -3632.93172972 Ry
     estimated scf accuracy    <       1.85974102 Ry

     total magnetization       =    37.19 Bohr mag/cell
     absolute magnetization    =    37.56 Bohr mag/cell

     iteration #  8     ecut=    44.10 Ry     beta=0.10
     Davidson diagonalization with overlap
     ethr =  5.11E-04,  avg # of iterations =  9.4

     negative rho (up, down):  4.309E-04 2.867E-04
 
     Adding external electric field

     Computed dipole along edir(3) : 
        Dipole               -0.2641 Ry au,         -0.6713 Debye
        Dipole field         -0.0003 Ry au
 
        Potential amp.        0.0225 Ry
        Total length         34.5908 bohr
 
 
     Adding external electric field

     Computed dipole along edir(3) : 
        Dipole               -0.2641 Ry au,         -0.6713 Debye
        Dipole field         -0.0003 Ry au
 
        Potential amp.        0.0225 Ry
        Total length         34.5908 bohr
 
 
     Magnetic moment per site:
     atom:    1    charge:    3.9883    magn:    0.8261    constr:    0.0000
     atom:    2    charge:    3.9658    magn:    0.8194    constr:    0.0000
     atom:    3    charge:    3.9692    magn:    0.8334    constr:    0.0000
     atom:    4    charge:    3.9723    magn:    0.7267    constr:    0.0000
     atom:    5    charge:    3.9885    magn:    0.8261    constr:    0.0000
     atom:    6    charge:    3.9671    magn:    0.8170    constr:    0.0000
     atom:    7    charge:    3.9656    magn:    0.8270    constr:    0.0000
     atom:    8    charge:    3.9695    magn:    0.6853    constr:    0.0000
     atom:    9    charge:    3.9874    magn:    0.8262    constr:    0.0000
     atom:   10    charge:    3.9630    magn:    0.8274    constr:    0.0000
     atom:   11    charge:    3.9646    magn:    0.8286    constr:    0.0000
     atom:   12    charge:    3.9868    magn:    0.8330    constr:    0.0000
     atom:   13    charge:    3.9880    magn:    0.8256    constr:    0.0000
     atom:   14    charge:    3.9628    magn:    0.8292    constr:    0.0000
     atom:   15    charge:    3.9652    magn:    0.8286    constr:    0.0000
     atom:   16    charge:    3.9927    magn:    0.8239    constr:    0.0000
     atom:   17    charge:    3.9890    magn:    0.8254    constr:    0.0000
     atom:   18    charge:    3.9621    magn:    0.8295    constr:    0.0000
     atom:   19    charge:    3.9698    magn:    0.8338    constr:    0.0000
     atom:   20    charge:    3.9931    magn:    0.8243    constr:    0.0000
     atom:   21    charge:    3.9891    magn:    0.8256    constr:    0.0000
     atom:   22    charge:    3.9630    magn:    0.8291    constr:    0.0000
     atom:   23    charge:    3.9663    magn:    0.8271    constr:    0.0000
     atom:   24    charge:    3.9940    magn:    0.8237    constr:    0.0000
     atom:   25    charge:    3.9921    magn:    0.8240    constr:    0.0000
     atom:   26    charge:    3.9624    magn:    0.8295    constr:    0.0000
     atom:   27    charge:    3.9633    magn:    0.8310    constr:    0.0000
     atom:   28    charge:    3.9932    magn:    0.8243    constr:    0.0000
     atom:   29    charge:    3.9914    magn:    0.8244    constr:    0.0000
     atom:   30    charge:    3.9623    magn:    0.8297    constr:    0.0000
     atom:   31    charge:    3.9626    magn:    0.8324    constr:    0.0000
     atom:   32    charge:    3.9920    magn:    0.8244    constr:    0.0000
     atom:   33    charge:    3.9897    magn:    0.8265    constr:    0.0000
     atom:   34    charge:    3.9615    magn:    0.8299    constr:    0.0000
     atom:   35    charge:    3.9620    magn:    0.8291    constr:    0.0000
     atom:   36    charge:    3.9922    magn:    0.8250    constr:    0.0000
     atom:   37    charge:    0.6483    magn:    0.2812    constr:    0.0000

     total cpu time spent up to now is     1045.1 secs

     total energy              =   -3633.26215875 Ry
     Harris-Foulkes estimate   =   -3633.05519143 Ry
     estimated scf accuracy    <       1.39230166 Ry

     total magnetization       =    36.08 Bohr mag/cell
     absolute magnetization    =    36.65 Bohr mag/cell

     iteration #  9     ecut=    44.10 Ry     beta=0.10
     Davidson diagonalization with overlap
     ethr =  3.83E-04,  avg # of iterations =  1.0

     negative rho (up, down):  4.241E-04 2.906E-04
 
     Adding external electric field

     Computed dipole along edir(3) : 
        Dipole               -0.2291 Ry au,         -0.5822 Debye
        Dipole field         -0.0003 Ry au
 
        Potential amp.        0.0195 Ry
        Total length         34.5908 bohr
 
 
     Adding external electric field

     Computed dipole along edir(3) : 
        Dipole               -0.2291 Ry au,         -0.5822 Debye
        Dipole field         -0.0003 Ry au
 
        Potential amp.        0.0195 Ry
        Total length         34.5908 bohr
 
 
     Magnetic moment per site:
     atom:    1    charge:    3.9868    magn:    0.7595    constr:    0.0000
     atom:    2    charge:    3.9613    magn:    0.7527    constr:    0.0000
     atom:    3    charge:    3.9690    magn:    0.7670    constr:    0.0000
     atom:    4    charge:    3.9702    magn:    0.6285    constr:    0.0000
     atom:    5    charge:    3.9881    magn:    0.7581    constr:    0.0000
     atom:    6    charge:    3.9608    magn:    0.7510    constr:    0.0000
     atom:    7    charge:    3.9674    magn:    0.7573    constr:    0.0000
     atom:    8    charge:    3.9669    magn:    0.5781    constr:    0.0000
     atom:    9    charge:    3.9892    magn:    0.7562    constr:    0.0000
     atom:   10    charge:    3.9609    magn:    0.7611    constr:    0.0000
     atom:   11    charge:    3.9674    magn:    0.7583    constr:    0.0000
     atom:   12    charge:    3.9936    magn:    0.7587    constr:    0.0000
     atom:   13    charge:    3.9869    magn:    0.7583    constr:    0.0000
     atom:   14    charge:    3.9615    magn:    0.7631    constr:    0.0000
     atom:   15    charge:    3.9658    magn:    0.7603    constr:    0.0000
     atom:   16    charge:    3.9886    magn:    0.7590    constr:    0.0000
     atom:   17    charge:    3.9841    magn:    0.7617    constr:    0.0000
     atom:   18    charge:    3.9616    magn:    0.7629    constr:    0.0000
     atom:   19    charge:    3.9670    magn:    0.7699    constr:    0.0000
     atom:   20    charge:    3.9894    magn:    0.7593    constr:    0.0000
     atom:   21    charge:    3.9855    magn:    0.7604    constr:    0.0000
     atom:   22    charge:    3.9608    magn:    0.7639    constr:    0.0000
     atom:   23    charge:    3.9657    magn:    0.7594    constr:    0.0000
     atom:   24    charge:    3.9878    magn:    0.7609    constr:    0.0000
     atom:   25    charge:    3.9856    magn:    0.7611    constr:    0.0000
     atom:   26    charge:    3.9626    magn:    0.7624    constr:    0.0000
     atom:   27    charge:    3.9630    magn:    0.7644    constr:    0.0000
     atom:   28    charge:    3.9908    magn:    0.7581    constr:    0.0000
     atom:   29    charge:    3.9873    magn:    0.7593    constr:    0.0000
     atom:   30    charge:    3.9634    magn:    0.7617    constr:    0.0000
     atom:   31    charge:    3.9639    magn:    0.7647    constr:    0.0000
     atom:   32    charge:    3.9915    magn:    0.7564    constr:    0.0000
     atom:   33    charge:    3.9878    magn:    0.7600    constr:    0.0000
     atom:   34    charge:    3.9633    magn:    0.7615    constr:    0.0000
     atom:   35    charge:    3.9634    magn:    0.7608    constr:    0.0000
     atom:   36    charge:    3.9922    magn:    0.7567    constr:    0.0000
     atom:   37    charge:    0.6498    magn:    0.2459    constr:    0.0000

     total cpu time spent up to now is     1154.0 secs

     total energy              =   -3633.45909078 Ry
     Harris-Foulkes estimate   =   -3633.31140115 Ry
     estimated scf accuracy    <       1.41248086 Ry

     total magnetization       =    33.90 Bohr mag/cell
     absolute magnetization    =    34.92 Bohr mag/cell

     iteration # 10     ecut=    44.10 Ry     beta=0.10
     Davidson diagonalization with overlap
     ethr =  3.83E-04,  avg # of iterations =  1.0

     negative rho (up, down):  4.241E-04 3.151E-04
 
     Adding external electric field

     Computed dipole along edir(3) : 
        Dipole               -0.1940 Ry au,         -0.4931 Debye
        Dipole field         -0.0002 Ry au
 
        Potential amp.        0.0165 Ry
        Total length         34.5908 bohr
 
 
     Adding external electric field

     Computed dipole along edir(3) : 
        Dipole               -0.1940 Ry au,         -0.4931 Debye
        Dipole field         -0.0002 Ry au
 
        Potential amp.        0.0165 Ry
        Total length         34.5908 bohr
 
 
     Magnetic moment per site:
     atom:    1    charge:    3.9849    magn:    0.6872    constr:    0.0000
     atom:    2    charge:    3.9611    magn:    0.6761    constr:    0.0000
     atom:    3    charge:    3.9677    magn:    0.6949    constr:    0.0000
     atom:    4    charge:    3.9685    magn:    0.5195    constr:    0.0000
     atom:    5    charge:    3.9838    magn:    0.6874    constr:    0.0000
     atom:    6    charge:    3.9599    magn:    0.6742    constr:    0.0000
     atom:    7    charge:    3.9663    magn:    0.6831    constr:    0.0000
     atom:    8    charge:    3.9654    magn:    0.4592    constr:    0.0000
     atom:    9    charge:    3.9844    magn:    0.6858    constr:    0.0000
     atom:   10    charge:    3.9618    magn:    0.6861    constr:    0.0000
     atom:   11    charge:    3.9661    magn:    0.6847    constr:    0.0000
     atom:   12    charge:    3.9966    magn:    0.6803    constr:    0.0000
     atom:   13    charge:    3.9883    magn:    0.6823    constr:    0.0000
     atom:   14    charge:    3.9639    magn:    0.6876    constr:    0.0000
     atom:   15    charge:    3.9687    magn:    0.6833    constr:    0.0000
     atom:   16    charge:    3.9891    magn:    0.6838    constr:    0.0000
     atom:   17    charge:    3.9870    magn:    0.6852    constr:    0.0000
     atom:   18    charge:    3.9650    magn:    0.6867    constr:    0.0000
     atom:   19    charge:    3.9701    magn:    0.6943    constr:    0.0000
     atom:   20    charge:    3.9910    magn:    0.6832    constr:    0.0000
     atom:   21    charge:    3.9870    magn:    0.6847    constr:    0.0000
     atom:   22    charge:    3.9644    magn:    0.6877    constr:    0.0000
     atom:   23    charge:    3.9688    magn:    0.6818    constr:    0.0000
     atom:   24    charge:    3.9897    magn:    0.6847    constr:    0.0000
     atom:   25    charge:    3.9830    magn:    0.6891    constr:    0.0000
     atom:   26    charge:    3.9624    magn:    0.6893    constr:    0.0000
     atom:   27    charge:    3.9648    magn:    0.6896    constr:    0.0000
     atom:   28    charge:    3.9869    magn:    0.6870    constr:    0.0000
     atom:   29    charge:    3.9837    magn:    0.6880    constr:    0.0000
     atom:   30    charge:    3.9616    magn:    0.6898    constr:    0.0000
     atom:   31    charge:    3.9653    magn:    0.6906    constr:    0.0000
     atom:   32    charge:    3.9852    magn:    0.6871    constr:    0.0000
     atom:   33    charge:    3.9859    magn:    0.6873    constr:    0.0000
     atom:   34    charge:    3.9628    magn:    0.6886    constr:    0.0000
     atom:   35    charge:    3.9665    magn:    0.6847    constr:    0.0000
     atom:   36    charge:    3.9871    magn:    0.6865    constr:    0.0000
     atom:   37    charge:    0.6511    magn:    0.2064    constr:    0.0000

     total cpu time spent up to now is     1263.3 secs

     total energy              =   -3633.59946199 Ry
     Harris-Foulkes estimate   =   -3633.51385297 Ry
     estimated scf accuracy    <       2.51084412 Ry

     total magnetization       =    32.37 Bohr mag/cell
     absolute magnetization    =    33.82 Bohr mag/cell

     iteration # 11     ecut=    44.10 Ry     beta=0.10
     Davidson diagonalization with overlap
     ethr =  3.83E-04,  avg # of iterations =  1.0

     negative rho (up, down):  4.548E-04 4.315E-04
 
     Adding external electric field

     Computed dipole along edir(3) : 
        Dipole               -0.1175 Ry au,         -0.2985 Debye
        Dipole field         -0.0001 Ry au
 
        Potential amp.        0.0100 Ry
        Total length         34.5908 bohr
 
 
     Adding external electric field

     Computed dipole along edir(3) : 
        Dipole               -0.1175 Ry au,         -0.2985 Debye
        Dipole field         -0.0001 Ry au
 
        Potential amp.        0.0100 Ry
        Total length         34.5908 bohr
 
 
     Magnetic moment per site:
     atom:    1    charge:    3.9890    magn:    0.5490    constr:    0.0000
     atom:    2    charge:    3.9675    magn:    0.5314    constr:    0.0000
     atom:    3    charge:    3.9741    magn:    0.5559    constr:    0.0000
     atom:    4    charge:    3.9670    magn:    0.3174    constr:    0.0000
     atom:    5    charge:    3.9836    magn:    0.5521    constr:    0.0000
     atom:    6    charge:    3.9666    magn:    0.5282    constr:    0.0000
     atom:    7    charge:    3.9698    magn:    0.5429    constr:    0.0000
     atom:    8    charge:    3.9643    magn:    0.2400    constr:    0.0000
     atom:    9    charge:    3.9823    magn:    0.5519    constr:    0.0000
     atom:   10    charge:    3.9672    magn:    0.5469    constr:    0.0000
     atom:   11    charge:    3.9684    magn:    0.5462    constr:    0.0000
     atom:   12    charge:    3.9893    magn:    0.5466    constr:    0.0000
     atom:   13    charge:    3.9814    magn:    0.5522    constr:    0.0000
     atom:   14    charge:    3.9644    magn:    0.5534    constr:    0.0000
     atom:   15    charge:    3.9672    magn:    0.5479    constr:    0.0000
     atom:   16    charge:    3.9839    magn:    0.5518    constr:    0.0000
     atom:   17    charge:    3.9880    magn:    0.5498    constr:    0.0000
     atom:   18    charge:    3.9660    magn:    0.5520    constr:    0.0000
     atom:   19    charge:    3.9745    magn:    0.5571    constr:    0.0000
     atom:   20    charge:    3.9868    magn:    0.5504    constr:    0.0000
     atom:   21    charge:    3.9836    magn:    0.5520    constr:    0.0000
     atom:   22    charge:    3.9674    magn:    0.5516    constr:    0.0000
     atom:   23    charge:    3.9690    magn:    0.5442    constr:    0.0000
     atom:   24    charge:    3.9897    magn:    0.5488    constr:    0.0000
     atom:   25    charge:    3.9839    magn:    0.5537    constr:    0.0000
     atom:   26    charge:    3.9682    magn:    0.5509    constr:    0.0000
     atom:   27    charge:    3.9688    magn:    0.5525    constr:    0.0000
     atom:   28    charge:    3.9890    magn:    0.5492    constr:    0.0000
     atom:   29    charge:    3.9813    magn:    0.5549    constr:    0.0000
     atom:   30    charge:    3.9654    magn:    0.5532    constr:    0.0000
     atom:   31    charge:    3.9674    magn:    0.5555    constr:    0.0000
     atom:   32    charge:    3.9833    magn:    0.5525    constr:    0.0000
     atom:   33    charge:    3.9819    magn:    0.5555    constr:    0.0000
     atom:   34    charge:    3.9673    magn:    0.5513    constr:    0.0000
     atom:   35    charge:    3.9696    magn:    0.5477    constr:    0.0000
     atom:   36    charge:    3.9864    magn:    0.5509    constr:    0.0000
     atom:   37    charge:    0.6521    magn:    0.1327    constr:    0.0000

     total cpu time spent up to now is     1372.5 secs

     total energy              =   -3633.78177585 Ry
     Harris-Foulkes estimate   =   -3633.69111340 Ry
     estimated scf accuracy    <       3.01586942 Ry

     total magnetization       =    30.73 Bohr mag/cell
     absolute magnetization    =    32.68 Bohr mag/cell

     iteration # 12     ecut=    44.10 Ry     beta=0.10
     Davidson diagonalization with overlap
     ethr =  3.83E-04,  avg # of iterations =  3.9

     negative rho (up, down):  4.331E-04 3.833E-04
 
     Adding external electric field

     Computed dipole along edir(3) : 
        Dipole               -0.1059 Ry au,         -0.2691 Debye
        Dipole field         -0.0001 Ry au
 
        Potential amp.        0.0090 Ry
        Total length         34.5908 bohr
 
 
     Adding external electric field

     Computed dipole along edir(3) : 
        Dipole               -0.1059 Ry au,         -0.2691 Debye
        Dipole field         -0.0001 Ry au
 
        Potential amp.        0.0090 Ry
        Total length         34.5908 bohr
 
 
     Magnetic moment per site:
     atom:    1    charge:    3.9791    magn:    0.5626    constr:    0.0000
     atom:    2    charge:    3.9669    magn:    0.5391    constr:    0.0000
     atom:    3    charge:    3.9718    magn:    0.5644    constr:    0.0000
     atom:    4    charge:    3.9660    magn:    0.3261    constr:    0.0000
     atom:    5    charge:    3.9806    magn:    0.5602    constr:    0.0000
     atom:    6    charge:    3.9665    magn:    0.5357    constr:    0.0000
     atom:    7    charge:    3.9666    magn:    0.5519    constr:    0.0000
     atom:    8    charge:    3.9622    magn:    0.2503    constr:    0.0000
     atom:    9    charge:    3.9809    magn:    0.5588    constr:    0.0000
     atom:   10    charge:    3.9668    magn:    0.5543    constr:    0.0000
     atom:   11    charge:    3.9667    magn:    0.5541    constr:    0.0000
     atom:   12    charge:    3.9865    magn:    0.5544    constr:    0.0000
     atom:   13    charge:    3.9809    magn:    0.5586    constr:    0.0000
     atom:   14    charge:    3.9654    magn:    0.5597    constr:    0.0000
     atom:   15    charge:    3.9668    magn:    0.5549    constr:    0.0000
     atom:   16    charge:    3.9840    magn:    0.5577    constr:    0.0000
     atom:   17    charge:    3.9802    magn:    0.5616    constr:    0.0000
     atom:   18    charge:    3.9647    magn:    0.5601    constr:    0.0000
     atom:   19    charge:    3.9726    magn:    0.5652    constr:    0.0000
     atom:   20    charge:    3.9856    magn:    0.5574    constr:    0.0000
     atom:   21    charge:    3.9809    magn:    0.5599    constr:    0.0000
     atom:   22    charge:    3.9639    magn:    0.5613    constr:    0.0000
     atom:   23    charge:    3.9668    magn:    0.5526    constr:    0.0000
     atom:   24    charge:    3.9853    magn:    0.5582    constr:    0.0000
     atom:   25    charge:    3.9818    magn:    0.5608    constr:    0.0000
     atom:   26    charge:    3.9636    magn:    0.5614    constr:    0.0000
     atom:   27    charge:    3.9643    magn:    0.5626    constr:    0.0000
     atom:   28    charge:    3.9851    magn:    0.5581    constr:    0.0000
     atom:   29    charge:    3.9822    magn:    0.5599    constr:    0.0000
     atom:   30    charge:    3.9654    magn:    0.5601    constr:    0.0000
     atom:   31    charge:    3.9654    magn:    0.5636    constr:    0.0000
     atom:   32    charge:    3.9843    magn:    0.5577    constr:    0.0000
     atom:   33    charge:    3.9800    magn:    0.5628    constr:    0.0000
     atom:   34    charge:    3.9644    magn:    0.5603    constr:    0.0000
     atom:   35    charge:    3.9630    magn:    0.5594    constr:    0.0000
     atom:   36    charge:    3.9856    magn:    0.5574    constr:    0.0000
     atom:   37    charge:    0.6496    magn:    0.1347    constr:    0.0000

     total cpu time spent up to now is     1495.1 secs

     total energy              =   -3633.81240999 Ry
     Harris-Foulkes estimate   =   -3633.87966061 Ry
     estimated scf accuracy    <       1.07047483 Ry

     total magnetization       =    26.79 Bohr mag/cell
     absolute magnetization    =    29.95 Bohr mag/cell

     iteration # 13     ecut=    44.10 Ry     beta=0.10
     Davidson diagonalization with overlap
     ethr =  2.94E-04,  avg # of iterations =  1.6

     negative rho (up, down):  4.371E-04 4.117E-04
 
     Adding external electric field

     Computed dipole along edir(3) : 
        Dipole               -0.1347 Ry au,         -0.3423 Debye
        Dipole field         -0.0002 Ry au
 
        Potential amp.        0.0115 Ry
        Total length         34.5908 bohr
 
 
     Adding external electric field

     Computed dipole along edir(3) : 
        Dipole               -0.1347 Ry au,         -0.3423 Debye
        Dipole field         -0.0002 Ry au
 
        Potential amp.        0.0115 Ry
        Total length         34.5908 bohr
 
 
     Magnetic moment per site:
     atom:    1    charge:    3.9808    magn:    0.5093    constr:    0.0000
     atom:    2    charge:    3.9680    magn:    0.4827    constr:    0.0000
     atom:    3    charge:    3.9745    magn:    0.5082    constr:    0.0000
     atom:    4    charge:    3.9663    magn:    0.2406    constr:    0.0000
     atom:    5    charge:    3.9820    magn:    0.5065    constr:    0.0000
     atom:    6    charge:    3.9690    magn:    0.4780    constr:    0.0000
     atom:    7    charge:    3.9677    magn:    0.4959    constr:    0.0000
     atom:    8    charge:    3.9626    magn:    0.1606    constr:    0.0000
     atom:    9    charge:    3.9821    magn:    0.5055    constr:    0.0000
     atom:   10    charge:    3.9661    magn:    0.5018    constr:    0.0000
     atom:   11    charge:    3.9672    magn:    0.4989    constr:    0.0000
     atom:   12    charge:    3.9867    magn:    0.4968    constr:    0.0000
     atom:   13    charge:    3.9818    magn:    0.5054    constr:    0.0000
     atom:   14    charge:    3.9679    magn:    0.5056    constr:    0.0000
     atom:   15    charge:    3.9680    magn:    0.4995    constr:    0.0000
     atom:   16    charge:    3.9820    magn:    0.5059    constr:    0.0000
     atom:   17    charge:    3.9804    magn:    0.5093    constr:    0.0000
     atom:   18    charge:    3.9683    magn:    0.5050    constr:    0.0000
     atom:   19    charge:    3.9747    magn:    0.5095    constr:    0.0000
     atom:   20    charge:    3.9843    magn:    0.5045    constr:    0.0000
     atom:   21    charge:    3.9813    magn:    0.5071    constr:    0.0000
     atom:   22    charge:    3.9683    magn:    0.5057    constr:    0.0000
     atom:   23    charge:    3.9682    magn:    0.4964    constr:    0.0000
     atom:   24    charge:    3.9844    magn:    0.5048    constr:    0.0000
     atom:   25    charge:    3.9802    magn:    0.5094    constr:    0.0000
     atom:   26    charge:    3.9682    magn:    0.5055    constr:    0.0000
     atom:   27    charge:    3.9661    magn:    0.5085    constr:    0.0000
     atom:   28    charge:    3.9840    magn:    0.5049    constr:    0.0000
     atom:   29    charge:    3.9802    magn:    0.5090    constr:    0.0000
     atom:   30    charge:    3.9677    magn:    0.5062    constr:    0.0000
     atom:   31    charge:    3.9662    magn:    0.5103    constr:    0.0000
     atom:   32    charge:    3.9820    magn:    0.5061    constr:    0.0000
     atom:   33    charge:    3.9828    magn:    0.5078    constr:    0.0000
     atom:   34    charge:    3.9681    magn:    0.5052    constr:    0.0000
     atom:   35    charge:    3.9666    magn:    0.5040    constr:    0.0000
     atom:   36    charge:    3.9839    magn:    0.5049    constr:    0.0000
     atom:   37    charge:    0.6452    magn:    0.1010    constr:    0.0000

     total cpu time spent up to now is     1606.2 secs

     total energy              =   -3633.87045215 Ry
     Harris-Foulkes estimate   =   -3633.84752958 Ry
     estimated scf accuracy    <       0.28317069 Ry

     total magnetization       =    26.64 Bohr mag/cell
     absolute magnetization    =    29.77 Bohr mag/cell

     iteration # 14     ecut=    44.10 Ry     beta=0.10
     Davidson diagonalization with overlap
     c_bands:  2 eigenvalues not converged
     ethr =  7.78E-05,  avg # of iterations =  9.8

     negative rho (up, down):  4.337E-04 4.126E-04
 
     Adding external electric field

     Computed dipole along edir(3) : 
        Dipole               -0.1353 Ry au,         -0.3438 Debye
        Dipole field         -0.0002 Ry au
 
        Potential amp.        0.0115 Ry
        Total length         34.5908 bohr
 
 
     Adding external electric field

     Computed dipole along edir(3) : 
        Dipole               -0.1353 Ry au,         -0.3438 Debye
        Dipole field         -0.0002 Ry au
 
        Potential amp.        0.0115 Ry
        Total length         34.5908 bohr
 
 
     Magnetic moment per site:
     atom:    1    charge:    3.9825    magn:    0.4822    constr:    0.0000
     atom:    2    charge:    3.9683    magn:    0.4540    constr:    0.0000
     atom:    3    charge:    3.9743    magn:    0.4805    constr:    0.0000
     atom:    4    charge:    3.9655    magn:    0.1970    constr:    0.0000
     atom:    5    charge:    3.9815    magn:    0.4806    constr:    0.0000
     atom:    6    charge:    3.9680    magn:    0.4498    constr:    0.0000
     atom:    7    charge:    3.9698    magn:    0.4661    constr:    0.0000
     atom:    8    charge:    3.9625    magn:    0.1154    constr:    0.0000
     atom:    9    charge:    3.9816    magn:    0.4796    constr:    0.0000
     atom:   10    charge:    3.9692    magn:    0.4728    constr:    0.0000
     atom:   11    charge:    3.9695    magn:    0.4693    constr:    0.0000
     atom:   12    charge:    3.9864    magn:    0.4673    constr:    0.0000
     atom:   13    charge:    3.9819    magn:    0.4792    constr:    0.0000
     atom:   14    charge:    3.9692    magn:    0.4778    constr:    0.0000
     atom:   15    charge:    3.9692    magn:    0.4705    constr:    0.0000
     atom:   16    charge:    3.9822    magn:    0.4791    constr:    0.0000
     atom:   17    charge:    3.9828    magn:    0.4817    constr:    0.0000
     atom:   18    charge:    3.9684    magn:    0.4781    constr:    0.0000
     atom:   19    charge:    3.9749    magn:    0.4814    constr:    0.0000
     atom:   20    charge:    3.9830    magn:    0.4786    constr:    0.0000
     atom:   21    charge:    3.9824    magn:    0.4799    constr:    0.0000
     atom:   22    charge:    3.9689    magn:    0.4784    constr:    0.0000
     atom:   23    charge:    3.9699    magn:    0.4669    constr:    0.0000
     atom:   24    charge:    3.9837    magn:    0.4783    constr:    0.0000
     atom:   25    charge:    3.9828    magn:    0.4810    constr:    0.0000
     atom:   26    charge:    3.9689    magn:    0.4782    constr:    0.0000
     atom:   27    charge:    3.9697    magn:    0.4791    constr:    0.0000
     atom:   28    charge:    3.9835    magn:    0.4784    constr:    0.0000
     atom:   29    charge:    3.9826    magn:    0.4809    constr:    0.0000
     atom:   30    charge:    3.9695    magn:    0.4781    constr:    0.0000
     atom:   31    charge:    3.9694    magn:    0.4811    constr:    0.0000
     atom:   32    charge:    3.9824    magn:    0.4791    constr:    0.0000
     atom:   33    charge:    3.9797    magn:    0.4838    constr:    0.0000
     atom:   34    charge:    3.9688    magn:    0.4779    constr:    0.0000
     atom:   35    charge:    3.9689    magn:    0.4756    constr:    0.0000
     atom:   36    charge:    3.9830    magn:    0.4787    constr:    0.0000
     atom:   37    charge:    0.6428    magn:    0.0832    constr:    0.0000

     total cpu time spent up to now is     1756.6 secs

     total energy              =   -3633.88533956 Ry
     Harris-Foulkes estimate   =   -3633.88230613 Ry
     estimated scf accuracy    <       0.14285473 Ry

     total magnetization       =    24.97 Bohr mag/cell
     absolute magnetization    =    28.60 Bohr mag/cell

     iteration # 15     ecut=    44.10 Ry     beta=0.10
     Davidson diagonalization with overlap
     ethr =  3.92E-05,  avg # of iterations =  3.2

     negative rho (up, down):  4.311E-04 4.138E-04
 
     Adding external electric field

     Computed dipole along edir(3) : 
        Dipole               -0.2389 Ry au,         -0.6072 Debye
        Dipole field         -0.0003 Ry au
 
        Potential amp.        0.0203 Ry
        Total length         34.5908 bohr
 
 
     Adding external electric field

     Computed dipole along edir(3) : 
        Dipole               -0.2389 Ry au,         -0.6072 Debye
        Dipole field         -0.0003 Ry au
 
        Potential amp.        0.0203 Ry
        Total length         34.5908 bohr
 
 
     Magnetic moment per site:
     atom:    1    charge:    3.9834    magn:    0.4565    constr:    0.0000
     atom:    2    charge:    3.9711    magn:    0.4225    constr:    0.0000
     atom:    3    charge:    3.9776    magn:    0.4484    constr:    0.0000
     atom:    4    charge:    3.9667    magn:    0.1498    constr:    0.0000
     atom:    5    charge:    3.9836    magn:    0.4534    constr:    0.0000
     atom:    6    charge:    3.9698    magn:    0.4186    constr:    0.0000
     atom:    7    charge:    3.9728    magn:    0.4339    constr:    0.0000
     atom:    8    charge:    3.9641    magn:    0.0688    constr:    0.0000
     atom:    9    charge:    3.9835    magn:    0.4526    constr:    0.0000
     atom:   10    charge:    3.9727    magn:    0.4426    constr:    0.0000
     atom:   11    charge:    3.9730    magn:    0.4371    constr:    0.0000
     atom:   12    charge:    3.9847    magn:    0.4372    constr:    0.0000
     atom:   13    charge:    3.9833    magn:    0.4526    constr:    0.0000
     atom:   14    charge:    3.9703    magn:    0.4495    constr:    0.0000
     atom:   15    charge:    3.9727    magn:    0.4383    constr:    0.0000
     atom:   16    charge:    3.9828    magn:    0.4525    constr:    0.0000
     atom:   17    charge:    3.9832    magn:    0.4563    constr:    0.0000
     atom:   18    charge:    3.9710    magn:    0.4487    constr:    0.0000
     atom:   19    charge:    3.9785    magn:    0.4490    constr:    0.0000
     atom:   20    charge:    3.9851    magn:    0.4505    constr:    0.0000
     atom:   21    charge:    3.9831    magn:    0.4537    constr:    0.0000
     atom:   22    charge:    3.9703    magn:    0.4497    constr:    0.0000
     atom:   23    charge:    3.9726    magn:    0.4349    constr:    0.0000
     atom:   24    charge:    3.9845    magn:    0.4511    constr:    0.0000
     atom:   25    charge:    3.9830    magn:    0.4553    constr:    0.0000
     atom:   26    charge:    3.9705    magn:    0.4494    constr:    0.0000
     atom:   27    charge:    3.9708    magn:    0.4504    constr:    0.0000
     atom:   28    charge:    3.9840    magn:    0.4514    constr:    0.0000
     atom:   29    charge:    3.9839    magn:    0.4545    constr:    0.0000
     atom:   30    charge:    3.9706    magn:    0.4498    constr:    0.0000
     atom:   31    charge:    3.9717    magn:    0.4514    constr:    0.0000
     atom:   32    charge:    3.9823    magn:    0.4531    constr:    0.0000
     atom:   33    charge:    3.9835    magn:    0.4553    constr:    0.0000
     atom:   34    charge:    3.9711    magn:    0.4486    constr:    0.0000
     atom:   35    charge:    3.9715    magn:    0.4461    constr:    0.0000
     atom:   36    charge:    3.9845    magn:    0.4510    constr:    0.0000
     atom:   37    charge:    0.6394    magn:    0.0629    constr:    0.0000

     total cpu time spent up to now is     1875.2 secs

     total energy              =   -3633.88934683 Ry
     Harris-Foulkes estimate   =   -3633.89254974 Ry
     estimated scf accuracy    <       0.12536455 Ry

     total magnetization       =    24.26 Bohr mag/cell
     absolute magnetization    =    28.12 Bohr mag/cell

     iteration # 16     ecut=    44.10 Ry     beta=0.10
     Davidson diagonalization with overlap
     ethr =  3.44E-05,  avg # of iterations =  2.2

     negative rho (up, down):  4.238E-04 4.026E-04
 
     Adding external electric field

     Computed dipole along edir(3) : 
        Dipole               -0.2030 Ry au,         -0.5160 Debye
        Dipole field         -0.0002 Ry au
 
        Potential amp.        0.0173 Ry
        Total length         34.5908 bohr
 
 
     Adding external electric field

     Computed dipole along edir(3) : 
        Dipole               -0.2030 Ry au,         -0.5160 Debye
        Dipole field         -0.0002 Ry au
 
        Potential amp.        0.0173 Ry
        Total length         34.5908 bohr
 
 
     Magnetic moment per site:
     atom:    1    charge:    3.9825    magn:    0.4452    constr:    0.0000
     atom:    2    charge:    3.9714    magn:    0.4084    constr:    0.0000
     atom:    3    charge:    3.9760    magn:    0.4355    constr:    0.0000
     atom:    4    charge:    3.9658    magn:    0.1284    constr:    0.0000
     atom:    5    charge:    3.9836    magn:    0.4410    constr:    0.0000
     atom:    6    charge:    3.9711    magn:    0.4038    constr:    0.0000
     atom:    7    charge:    3.9720    magn:    0.4201    constr:    0.0000
     atom:    8    charge:    3.9639    magn:    0.0472    constr:    0.0000
     atom:    9    charge:    3.9835    magn:    0.4404    constr:    0.0000
     atom:   10    charge:    3.9729    magn:    0.4292    constr:    0.0000
     atom:   11    charge:    3.9718    magn:    0.4238    constr:    0.0000
     atom:   12    charge:    3.9845    magn:    0.4228    constr:    0.0000
     atom:   13    charge:    3.9836    magn:    0.4402    constr:    0.0000
     atom:   14    charge:    3.9732    magn:    0.4346    constr:    0.0000
     atom:   15    charge:    3.9719    magn:    0.4248    constr:    0.0000
     atom:   16    charge:    3.9830    magn:    0.4398    constr:    0.0000
     atom:   17    charge:    3.9824    magn:    0.4450    constr:    0.0000
     atom:   18    charge:    3.9734    magn:    0.4341    constr:    0.0000
     atom:   19    charge:    3.9765    magn:    0.4364    constr:    0.0000
     atom:   20    charge:    3.9840    magn:    0.4386    constr:    0.0000
     atom:   21    charge:    3.9834    magn:    0.4413    constr:    0.0000
     atom:   22    charge:    3.9731    magn:    0.4347    constr:    0.0000
     atom:   23    charge:    3.9721    magn:    0.4210    constr:    0.0000
     atom:   24    charge:    3.9841    magn:    0.4386    constr:    0.0000
     atom:   25    charge:    3.9832    magn:    0.4428    constr:    0.0000
     atom:   26    charge:    3.9731    magn:    0.4345    constr:    0.0000
     atom:   27    charge:    3.9727    magn:    0.4359    constr:    0.0000
     atom:   28    charge:    3.9840    magn:    0.4386    constr:    0.0000
     atom:   29    charge:    3.9833    magn:    0.4425    constr:    0.0000
     atom:   30    charge:    3.9731    magn:    0.4351    constr:    0.0000
     atom:   31    charge:    3.9729    magn:    0.4373    constr:    0.0000
     atom:   32    charge:    3.9830    magn:    0.4399    constr:    0.0000
     atom:   33    charge:    3.9849    magn:    0.4418    constr:    0.0000
     atom:   34    charge:    3.9733    magn:    0.4341    constr:    0.0000
     atom:   35    charge:    3.9730    magn:    0.4319    constr:    0.0000
     atom:   36    charge:    3.9839    magn:    0.4388    constr:    0.0000
     atom:   37    charge:    0.6378    magn:    0.0534    constr:    0.0000

     total cpu time spent up to now is     1988.5 secs

     total energy              =   -3633.88882224 Ry
     Harris-Foulkes estimate   =   -3633.90040397 Ry
     estimated scf accuracy    <       0.41897236 Ry

     total magnetization       =    23.42 Bohr mag/cell
     absolute magnetization    =    27.49 Bohr mag/cell

     iteration # 17     ecut=    44.10 Ry     beta=0.10
     Davidson diagonalization with overlap
     ethr =  3.44E-05,  avg # of iterations =  1.0

     negative rho (up, down):  4.145E-04 3.841E-04
 
     Adding external electric field

     Computed dipole along edir(3) : 
        Dipole               -0.1848 Ry au,         -0.4698 Debye
        Dipole field         -0.0002 Ry au
 
        Potential amp.        0.0157 Ry
        Total length         34.5908 bohr
 
 
     Adding external electric field

     Computed dipole along edir(3) : 
        Dipole               -0.1848 Ry au,         -0.4698 Debye
        Dipole field         -0.0002 Ry au
 
        Potential amp.        0.0157 Ry
        Total length         34.5908 bohr
 
 
     Magnetic moment per site:
     atom:    1    charge:    3.9831    magn:    0.4419    constr:    0.0000
     atom:    2    charge:    3.9712    magn:    0.4039    constr:    0.0000
     atom:    3    charge:    3.9780    magn:    0.4292    constr:    0.0000
     atom:    4    charge:    3.9676    magn:    0.1202    constr:    0.0000
     atom:    5    charge:    3.9839    magn:    0.4378    constr:    0.0000
     atom:    6    charge:    3.9711    magn:    0.3992    constr:    0.0000
     atom:    7    charge:    3.9732    magn:    0.4144    constr:    0.0000
     atom:    8    charge:    3.9651    magn:    0.0404    constr:    0.0000
     atom:    9    charge:    3.9838    magn:    0.4372    constr:    0.0000
     atom:   10    charge:    3.9718    magn:    0.4258    constr:    0.0000
     atom:   11    charge:    3.9730    magn:    0.4182    constr:    0.0000
     atom:   12    charge:    3.9859    magn:    0.4168    constr:    0.0000
     atom:   13    charge:    3.9837    magn:    0.4371    constr:    0.0000
     atom:   14    charge:    3.9732    magn:    0.4304    constr:    0.0000
     atom:   15    charge:    3.9730    magn:    0.4193    constr:    0.0000
     atom:   16    charge:    3.9822    magn:    0.4373    constr:    0.0000
     atom:   17    charge:    3.9831    magn:    0.4417    constr:    0.0000
     atom:   18    charge:    3.9729    magn:    0.4302    constr:    0.0000
     atom:   19    charge:    3.9784    magn:    0.4301    constr:    0.0000
     atom:   20    charge:    3.9832    magn:    0.4360    constr:    0.0000
     atom:   21    charge:    3.9838    magn:    0.4378    constr:    0.0000
     atom:   22    charge:    3.9730    magn:    0.4306    constr:    0.0000
     atom:   23    charge:    3.9733    magn:    0.4153    constr:    0.0000
     atom:   24    charge:    3.9834    magn:    0.4359    constr:    0.0000
     atom:   25    charge:    3.9857    magn:    0.4377    constr:    0.0000
     atom:   26    charge:    3.9730    magn:    0.4304    constr:    0.0000
     atom:   27    charge:    3.9725    magn:    0.4317    constr:    0.0000
     atom:   28    charge:    3.9832    magn:    0.4360    constr:    0.0000
     atom:   29    charge:    3.9856    magn:    0.4376    constr:    0.0000
     atom:   30    charge:    3.9733    magn:    0.4308    constr:    0.0000
     atom:   31    charge:    3.9725    magn:    0.4332    constr:    0.0000
     atom:   32    charge:    3.9823    magn:    0.4374    constr:    0.0000
     atom:   33    charge:    3.9854    magn:    0.4381    constr:    0.0000
     atom:   34    charge:    3.9730    magn:    0.4300    constr:    0.0000
     atom:   35    charge:    3.9722    magn:    0.4283    constr:    0.0000
     atom:   36    charge:    3.9831    magn:    0.4362    constr:    0.0000
     atom:   37    charge:    0.6370    magn:    0.0496    constr:    0.0000

     total cpu time spent up to now is     2097.4 secs

     total energy              =   -3633.89213024 Ry
     Harris-Foulkes estimate   =   -3633.89855646 Ry
     estimated scf accuracy    <       0.18524171 Ry

     total magnetization       =    23.23 Bohr mag/cell
     absolute magnetization    =    27.38 Bohr mag/cell

     iteration # 18     ecut=    44.10 Ry     beta=0.10
     Davidson diagonalization with overlap
     ethr =  3.44E-05,  avg # of iterations =  1.0

     negative rho (up, down):  4.097E-04 3.772E-04
 
     Adding external electric field

     Computed dipole along edir(3) : 
        Dipole               -0.1891 Ry au,         -0.4807 Debye
        Dipole field         -0.0002 Ry au
 
        Potential amp.        0.0161 Ry
        Total length         34.5908 bohr
 
 
     Adding external electric field

     Computed dipole along edir(3) : 
        Dipole               -0.1891 Ry au,         -0.4807 Debye
        Dipole field         -0.0002 Ry au
 
        Potential amp.        0.0161 Ry
        Total length         34.5908 bohr
 
 
     Magnetic moment per site:
     atom:    1    charge:    3.9833    magn:    0.4312    constr:    0.0000
     atom:    2    charge:    3.9716    magn:    0.3913    constr:    0.0000
     atom:    3    charge:    3.9771    magn:    0.4174    constr:    0.0000
     atom:    4    charge:    3.9673    magn:    0.1020    constr:    0.0000
     atom:    5    charge:    3.9849    magn:    0.4261    constr:    0.0000
     atom:    6    charge:    3.9718    magn:    0.3863    constr:    0.0000
     atom:    7    charge:    3.9728    magn:    0.4019    constr:    0.0000
     atom:    8    charge:    3.9650    magn:    0.0221    constr:    0.0000
     atom:    9    charge:    3.9849    magn:    0.4255    constr:    0.0000
     atom:   10    charge:    3.9720    magn:    0.4138    constr:    0.0000
     atom:   11    charge:    3.9726    magn:    0.4059    constr:    0.0000
     atom:   12    charge:    3.9844    magn:    0.4054    constr:    0.0000
     atom:   13    charge:    3.9850    magn:    0.4253    constr:    0.0000
     atom:   14    charge:    3.9740    magn:    0.4182    constr:    0.0000
     atom:   15    charge:    3.9728    magn:    0.4069    constr:    0.0000
     atom:   16    charge:    3.9832    magn:    0.4258    constr:    0.0000
     atom:   17    charge:    3.9834    magn:    0.4308    constr:    0.0000
     atom:   18    charge:    3.9734    magn:    0.4182    constr:    0.0000
[...]
     5.8805   5.9134   5.9490   6.2342   6.3597   6.4512   6.5150   6.5203
     6.5762   6.6332   6.7054   6.7507   6.7806   6.8003   7.0098   7.1291
     7.1931   7.2145   7.3201   7.6038   7.7284   7.8491   7.9050   7.9616
     7.9801   7.9813   8.0772   8.3294   8.3647   8.4333   8.5026   8.5333
     8.6927   8.7146   8.8558   8.9825   9.0787   9.1314   9.2063   9.3428
     9.3589   9.5310   9.6459   9.6675   9.7173   9.8493   9.8698   9.8975
     9.9146   9.9401

 ------ SPIN DOWN ----------


          k = 0.0000 0.0000 0.0000 ( 50455 PWs)   bands (ev):

   -10.1984  -7.3825  -6.1611  -6.0668  -5.0783  -4.9993  -4.6420  -4.3351
    -4.1674  -4.1196  -4.1032  -3.9556  -3.8981  -3.6092  -3.6088  -3.5963
    -3.3727  -3.3206  -3.2784  -3.2173  -3.1410  -2.9890  -2.8512  -2.8383
    -2.8205  -2.7780  -2.7590  -2.6464  -2.6363  -2.5973  -2.5392  -2.5343
    -2.5194  -2.5025  -2.4604  -2.4544  -2.3950  -2.3649  -2.3616  -2.3492
    -2.3433  -2.3397  -2.3033  -2.2340  -2.1992  -2.1589  -2.0948  -2.0874
    -2.0566  -2.0334  -2.0082  -1.9749  -1.9411  -1.9330  -1.8805  -1.8738
    -1.8209  -1.7837  -1.7527  -1.6711  -1.6654  -1.6609  -1.5820  -1.5715
    -1.5235  -1.5019  -1.4916  -1.4554  -1.4499  -1.4375  -1.4371  -1.4115
    -1.3879  -1.3815  -1.3738  -1.3469  -1.3465  -1.3199  -1.2624  -1.2563
    -1.2505  -1.2172  -1.1705  -1.1543  -1.1322  -1.0798  -1.0715  -1.0582
    -1.0547  -1.0379  -1.0324  -1.0132  -0.9941  -0.9885  -0.9713  -0.9472
    -0.9444  -0.8939  -0.8891  -0.8822  -0.8700  -0.8585  -0.7637  -0.7413
    -0.7231  -0.7160  -0.7128  -0.7078  -0.6873  -0.6791  -0.6653  -0.6323
    -0.6031  -0.5956  -0.5752  -0.5733  -0.5437  -0.5250  -0.4726  -0.4654
    -0.4628  -0.4311  -0.4293  -0.3964  -0.3805  -0.3247  -0.3173  -0.2723
    -0.2686  -0.2655  -0.2462  -0.2283  -0.2242  -0.1943  -0.1701  -0.1673
    -0.1621  -0.1503  -0.1043  -0.0699  -0.0615  -0.0589  -0.0326  -0.0097
     0.0355   0.0427   0.0441   0.0535   0.0638   0.0659   0.0863   0.1381
     0.1532   0.1586   0.1738   0.1820   0.2022   0.2043   0.2153   0.2204
     0.2577   0.2698   0.2728   0.2772   0.2803   0.2912   0.3076   0.3720
     0.3725   0.3815   0.3834   0.3877   0.3948   0.3995   0.3997   0.4004
     0.4115   0.4196   0.4236   0.4388   0.4470   0.4584   0.4710   0.4722
     0.4884   0.5186   0.5454   0.5520   0.5570   0.5675   0.6245   0.6756
     0.6775   0.7211   0.7276   0.7557   0.8980   0.9262   1.2271   1.2479
     1.5544   1.6785   1.8495   1.9102   2.1253   2.2667   2.6513   2.8869
     3.0712   3.0972   3.1289   3.1681   3.2124   3.2594   3.4260   3.5566
     3.6214   3.9610   4.2785   4.2987   4.3670   4.5735   4.7855   5.1076
     5.2836   5.2958   5.5879   5.5948   5.6278   5.6686   5.6996   5.7236
     5.8815   5.9286   6.2223   6.2952   6.3528   6.5305   6.6756   6.6834
     6.7717   6.8487   6.8819   7.0595   7.0722   7.4379   7.5762   7.7495
     7.7614   7.7977   7.9272   7.9360   7.9424   7.9597   8.0066   8.1089
     8.1182   8.1715   8.1845   8.2160   8.2975   8.3360   8.4159   8.5741
     8.6623   8.6870   8.7026   8.7534   8.7571   8.8193   8.9359   9.0481
     9.1805   9.1828   9.2562   9.3056   9.3810   9.4177   9.5895   9.6036
     9.6115   9.6698

          k = 0.0000 0.0541 0.0000 ( 50496 PWs)   bands (ev):

   -10.1904  -6.9565  -6.5227  -6.1174  -5.7231  -4.9845  -4.4111  -4.2969
    -4.1111  -4.0788  -3.8745  -3.7531  -3.6527  -3.6085  -3.5014  -3.4109
    -3.3941  -3.3104  -3.2516  -3.2094  -3.1371  -3.0753  -3.0662  -3.0280
    -2.9842  -2.8606  -2.7733  -2.7628  -2.7253  -2.6593  -2.6391  -2.6234
    -2.5860  -2.5675  -2.5332  -2.4637  -2.3837  -2.3757  -2.3511  -2.3140
    -2.2702  -2.2645  -2.2459  -2.1861  -2.1536  -2.1418  -2.1189  -2.0814
    -2.0507  -2.0191  -1.9478  -1.9441  -1.9232  -1.8957  -1.8507  -1.8297
    -1.7806  -1.7566  -1.7459  -1.7105  -1.6963  -1.6803  -1.6581  -1.6385
    -1.6158  -1.6084  -1.5776  -1.5379  -1.4642  -1.4534  -1.4406  -1.4259
    -1.4073  -1.4038  -1.3696  -1.3454  -1.3386  -1.3225  -1.2852  -1.2629
    -1.2288  -1.2066  -1.2034  -1.1808  -1.1591  -1.1495  -1.1397  -1.1254
    -1.1143  -1.0647  -1.0456  -1.0442  -1.0224  -1.0127  -0.9891  -0.9792
    -0.9640  -0.9439  -0.9264  -0.8920  -0.8786  -0.8415  -0.8023  -0.7896
    -0.7695  -0.7368  -0.7011  -0.6958  -0.6679  -0.6582  -0.6428  -0.6237
    -0.6173  -0.6034  -0.5516  -0.5348  -0.5080  -0.4971  -0.4829  -0.4738
    -0.4618  -0.4514  -0.4316  -0.4160  -0.4068  -0.3921  -0.3721  -0.3614
    -0.3527  -0.3291  -0.2994  -0.2954  -0.2522  -0.2288  -0.2044  -0.1855
    -0.1688  -0.1548  -0.1180  -0.1032  -0.0832  -0.0497  -0.0199  -0.0042
     0.0108   0.0368   0.0564   0.0630   0.0786   0.1142   0.1241   0.1326
     0.1486   0.1533   0.1596   0.1832   0.2043   0.2092   0.2385   0.2568
     0.2775   0.2830   0.2998   0.3207   0.3230   0.3335   0.3383   0.3431
     0.3533   0.3615   0.3732   0.3792   0.3988   0.4094   0.4346   0.4615
     0.4931   0.5005   0.5195   0.5264   0.5422   0.5538   0.5718   0.5932
     0.6097   0.6199   0.6259   0.6366   0.6536   0.6609   0.6700   0.6840
     0.9407   1.0276   1.1058   1.2056   1.2596   1.2814   1.3401   1.5983
     1.7251   1.7516   1.8929   2.0404   2.0730   2.3213   2.4000   2.6371
     2.7687   2.7928   3.0619   3.1244   3.1642   3.4172   3.6136   3.6809
     3.8055   3.9097   4.0692   4.2223   4.3131   4.4302   4.5123   4.7574
     4.7749   4.9090   5.0643   5.2557   5.3444   5.5440   5.6547   5.6978
     5.9746   6.0022   6.0532   6.1238   6.2012   6.5132   6.5613   6.5934
     6.6147   6.6970   6.8849   6.9011   6.9429   7.0892   7.1204   7.1944
     7.3347   7.3986   7.5412   7.6386   7.7724   7.8559   7.8653   8.0333
     8.1122   8.1750   8.2299   8.2483   8.2960   8.4698   8.5359   8.6567
     8.7408   8.9712   8.9893   9.0288   9.0460   9.0973   9.1348   9.2331
     9.3166   9.3666   9.3805   9.4393   9.4674   9.5325   9.5839   9.6457
     9.7447   9.7693

          k = 0.0255 0.0180 0.0000 ( 50428 PWs)   bands (ev):

   -10.1982  -7.2446  -6.7933  -5.2374  -4.9777  -4.8907  -4.6522  -4.5967
    -4.5427  -4.3289  -4.2366  -3.8870  -3.6735  -3.6012  -3.4782  -3.4043
    -3.3234  -3.2682  -3.2556  -3.2191  -3.1962  -3.0960  -3.0832  -2.9961
    -2.9779  -2.8278  -2.7101  -2.6201  -2.5898  -2.5711  -2.5331  -2.5259
    -2.4503  -2.4497  -2.4419  -2.4305  -2.4081  -2.3748  -2.3204  -2.3095
    -2.2738  -2.2344  -2.2096  -2.1641  -2.1587  -2.1496  -2.1317  -2.1219
    -2.0822  -2.0547  -2.0229  -2.0015  -1.9355  -1.9343  -1.9124  -1.8906
    -1.8561  -1.8062  -1.8043  -1.7782  -1.6821  -1.6778  -1.5995  -1.5545
    -1.5362  -1.5280  -1.5247  -1.5018  -1.4517  -1.4460  -1.4279  -1.3988
    -1.3905  -1.3805  -1.3777  -1.3365  -1.3296  -1.2879  -1.2858  -1.2700
    -1.2567  -1.2280  -1.2256  -1.1009  -1.0572  -1.0383  -1.0239  -1.0127
    -1.0054  -1.0028  -0.9985  -0.9650  -0.9533  -0.9421  -0.9388  -0.9263
    -0.9147  -0.9012  -0.8861  -0.8722  -0.8633  -0.8589  -0.8568  -0.8273
    -0.8162  -0.7559  -0.7444  -0.7160  -0.7046  -0.6652  -0.6491  -0.6218
    -0.5988  -0.5878  -0.5844  -0.5438  -0.5433  -0.5161  -0.4962  -0.4909
    -0.4222  -0.4174  -0.4151  -0.3978  -0.3782  -0.3651  -0.3538  -0.3214
    -0.3032  -0.2949  -0.2657  -0.2537  -0.2384  -0.2318  -0.2015  -0.1803
    -0.1673  -0.1406  -0.1311  -0.1039  -0.0832  -0.0799   0.0229   0.0269
     0.0383   0.0428   0.0573   0.1004   0.1043   0.1109   0.1125   0.1192
     0.1495   0.1619   0.1629   0.1953   0.1974   0.2225   0.2247   0.2390
     0.2593   0.2672   0.2801   0.3033   0.3062   0.3205   0.3256   0.3338
     0.3577   0.3625   0.3642   0.3673   0.3747   0.3794   0.3870   0.4024
     0.4202   0.4263   0.4344   0.4564   0.4738   0.4891   0.4931   0.5372
     0.5394   0.5646   0.5936   0.6291   0.6393   0.6517   0.6577   0.6932
     0.7126   0.7314   0.8275   0.8389   0.8978   0.9946   1.1088   1.1748
     1.2818   1.5791   1.6361   1.7775   1.7939   2.3713   2.5252   2.7037
     2.9313   2.9967   3.1622   3.2108   3.3178   3.4451   3.5862   3.7742
     3.7932   3.9009   4.2484   4.4900   4.6252   4.6389   4.7169   4.9693
     5.1586   5.2998   5.3936   5.5537   5.6619   5.7124   5.7480   6.1220
     6.1583   6.2171   6.3053   6.3467   6.3985   6.4124   6.6421   6.7816
     6.8086   7.0238   7.0476   7.2422   7.2554   7.3492   7.4189   7.4582
     7.5435   7.5532   7.6645   7.6718   7.8114   7.8466   7.9091   7.9187
     7.9722   8.0212   8.1781   8.2388   8.2476   8.3829   8.4241   8.4773
     8.4937   8.5306   8.6607   8.7277   8.7808   8.8298   8.8412   8.9681
     9.0497   9.1364   9.2042   9.2084   9.3016   9.3599   9.3919   9.4543
     9.4839   9.5659

          k = 0.0255 0.0721 0.0000 ( 50496 PWs)   bands (ev):

   -10.1904  -6.9565  -6.5227  -6.1174  -5.7231  -4.9845  -4.4111  -4.2969
    -4.1111  -4.0788  -3.8746  -3.7531  -3.6529  -3.6083  -3.5015  -3.4108
    -3.3940  -3.3103  -3.2517  -3.2094  -3.1371  -3.0752  -3.0662  -3.0280
    -2.9843  -2.8606  -2.7734  -2.7627  -2.7252  -2.6593  -2.6391  -2.6234
    -2.5860  -2.5674  -2.5332  -2.4638  -2.3837  -2.3758  -2.3511  -2.3141
    -2.2702  -2.2646  -2.2457  -2.1861  -2.1536  -2.1418  -2.1190  -2.0815
    -2.0507  -2.0189  -1.9479  -1.9440  -1.9232  -1.8957  -1.8509  -1.8297
    -1.7806  -1.7568  -1.7458  -1.7105  -1.6963  -1.6803  -1.6580  -1.6388
    -1.6155  -1.6084  -1.5777  -1.5378  -1.4644  -1.4533  -1.4408  -1.4260
    -1.4069  -1.4040  -1.3697  -1.3455  -1.3387  -1.3220  -1.2850  -1.2631
    -1.2289  -1.2066  -1.2035  -1.1807  -1.1594  -1.1496  -1.1397  -1.1254
    -1.1144  -1.0646  -1.0458  -1.0440  -1.0223  -1.0128  -0.9889  -0.9794
    -0.9641  -0.9438  -0.9264  -0.8920  -0.8786  -0.8415  -0.8023  -0.7896
    -0.7695  -0.7368  -0.7011  -0.6958  -0.6679  -0.6582  -0.6427  -0.6237
    -0.6173  -0.6034  -0.5516  -0.5348  -0.5082  -0.4970  -0.4829  -0.4740
    -0.4618  -0.4514  -0.4316  -0.4160  -0.4068  -0.3918  -0.3722  -0.3613
    -0.3527  -0.3287  -0.2997  -0.2955  -0.2522  -0.2288  -0.2044  -0.1855
    -0.1688  -0.1548  -0.1181  -0.1031  -0.0831  -0.0497  -0.0199  -0.0042
     0.0107   0.0368   0.0564   0.0629   0.0786   0.1142   0.1241   0.1326
     0.1487   0.1533   0.1595   0.1832   0.2042   0.2092   0.2385   0.2568
     0.2776   0.2831   0.2998   0.3207   0.3230   0.3335   0.3382   0.3431
     0.3534   0.3615   0.3733   0.3792   0.3988   0.4094   0.4346   0.4615
     0.4930   0.5006   0.5194   0.5264   0.5422   0.5539   0.5718   0.5931
     0.6097   0.6199   0.6259   0.6366   0.6536   0.6610   0.6699   0.6840
     0.9407   1.0276   1.1058   1.2055   1.2596   1.2815   1.3401   1.5983
     1.7248   1.7519   1.8929   2.0404   2.0730   2.3212   2.3999   2.6371
     2.7690   2.7926   3.0619   3.1244   3.1643   3.4171   3.6135   3.6810
     3.8055   3.9097   4.0692   4.2223   4.3132   4.4301   4.5122   4.7574
     4.7749   4.9088   5.0644   5.2557   5.3444   5.5440   5.6547   5.6977
     5.9746   6.0021   6.0532   6.1238   6.2012   6.5132   6.5613   6.5934
     6.6147   6.6970   6.8848   6.9011   6.9429   7.0892   7.1205   7.1943
     7.3347   7.3986   7.5412   7.6387   7.7725   7.8560   7.8653   8.0335
     8.1121   8.1748   8.2298   8.2483   8.2960   8.4697   8.5358   8.6566
     8.7409   8.9712   8.9893   9.0288   9.0460   9.0974   9.1349   9.2331
     9.3167   9.3669   9.3803   9.4391   9.4674   9.5325   9.5838   9.6457
     9.7447   9.7691

          k = 0.0255-0.0361 0.0000 ( 50488 PWs)   bands (ev):

   -10.1906  -7.0958  -6.2625  -5.8799  -5.8069  -5.1106  -5.1022  -4.4166
    -4.0377  -3.8365  -3.7045  -3.6758  -3.6113  -3.5382  -3.4193  -3.3883
    -3.3411  -3.3191  -3.2382  -3.1803  -3.0812  -3.0380  -2.9843  -2.9675
    -2.9544  -2.9226  -2.8339  -2.8025  -2.7222  -2.6802  -2.6420  -2.6368
    -2.6306  -2.5673  -2.5083  -2.5007  -2.4814  -2.4511  -2.4345  -2.3793
    -2.2495  -2.2314  -2.1792  -2.1652  -2.1492  -2.1104  -2.1069  -2.0956
    -2.0686  -2.0628  -2.0263  -2.0220  -1.9761  -1.9021  -1.8755  -1.7813
    -1.7546  -1.7338  -1.7136  -1.6705  -1.6369  -1.6014  -1.6003  -1.5847
    -1.5487  -1.5274  -1.4991  -1.4846  -1.4821  -1.4753  -1.4604  -1.4563
    -1.4462  -1.4374  -1.4249  -1.3998  -1.3992  -1.3487  -1.3005  -1.2831
    -1.2393  -1.2153  -1.1834  -1.1422  -1.1362  -1.1288  -1.1157  -1.1102
    -1.0790  -1.0602  -1.0565  -1.0310  -1.0202  -0.9914  -0.9765  -0.9696
    -0.9507  -0.9188  -0.9064  -0.8820  -0.8640  -0.8565  -0.8322  -0.8251
    -0.8011  -0.7909  -0.7711  -0.7561  -0.7469  -0.7012  -0.6961  -0.6760
    -0.6262  -0.6170  -0.6120  -0.5786  -0.5570  -0.5216  -0.5002  -0.4776
    -0.4689  -0.4658  -0.4375  -0.4346  -0.3926  -0.3738  -0.3522  -0.3307
    -0.3249  -0.3072  -0.2938  -0.2533  -0.2250  -0.2247  -0.2028  -0.1647
    -0.1609  -0.1291  -0.0950  -0.0731  -0.0522  -0.0470  -0.0071   0.0327
     0.0373   0.0485   0.0655   0.0820   0.0834   0.0974   0.1100   0.1302
     0.1357   0.1488   0.1670   0.1805   0.1864   0.2030   0.2231   0.2411
     0.2701   0.2795   0.2888   0.2895   0.3226   0.3389   0.3515   0.3672
     0.3694   0.3769   0.4046   0.4126   0.4170   0.4217   0.4245   0.4376
     0.4530   0.4595   0.4760   0.4878   0.5216   0.5405   0.5692   0.6054
     0.6150   0.6152   0.6333   0.6405   0.6423   0.6685   0.7231   0.8554
     0.9999   1.0864   1.1481   1.1928   1.2343   1.2726   1.3591   1.4423
     1.5731   1.7678   1.9942   2.1334   2.1550   2.3002   2.4334   2.5929
     2.7475   3.0131   3.0633   3.0706   3.2977   3.3847   3.5064   3.5616
     3.6182   3.6549   3.9771   3.9991   4.2857   4.3968   4.4879   4.6617
     4.8120   5.1317   5.1657   5.2274   5.3528   5.5302   5.6077   5.8763
     5.8851   5.9734   6.1309   6.2630   6.4040   6.4713   6.6727   6.7268
     6.7550   6.7834   6.8130   6.8218   6.8339   6.9876   7.0470   7.1612
     7.2178   7.2604   7.4661   7.6640   7.7986   8.0031   8.0055   8.0237
     8.0726   8.1138   8.1574   8.3696   8.4316   8.4755   8.6285   8.6637
     8.7943   8.8053   8.8784   9.0314   9.1061   9.1893   9.2497   9.3848
     9.4552   9.5977   9.6849   9.7053   9.7868   9.8884   9.9126   9.9351
     9.9695   9.9917

     the Fermi energy is     0.3896 ev

!    total energy              =   -3633.95552318 Ry
     Harris-Foulkes estimate   =   -3633.95552443 Ry
     estimated scf accuracy    <       0.00000067 Ry

     The total energy is the sum of the following terms:

     one-electron contribution =  -18933.20906673 Ry
     hartree contribution      =    9843.97172972 Ry
     xc contribution           =   -1508.89427206 Ry
     ewald contribution        =    6964.35778770 Ry
     electric field correction =       0.00009582 Ry
     smearing contrib. (-TS)   =      -0.18179762 Ry

     total magnetization       =    22.60 Bohr mag/cell
     absolute magnetization    =    26.23 Bohr mag/cell

     convergence has been achieved in  15 iterations

     Forces acting on atoms (Ry/au):


     negative rho (up, down):  4.141E-04 3.162E-04
     atom    1 type  1   force =     0.00023897    0.00011073    0.01748256
     atom    2 type  1   force =    -0.00085865    0.00101418   -0.01666894
     atom    3 type  1   force =    -0.00054343   -0.00059578   -0.00005355
     atom    4 type  1   force =     0.00049048   -0.00068832    0.00057561
     atom    5 type  1   force =     0.00059531   -0.00027671    0.01927459
     atom    6 type  1   force =     0.00040009   -0.00073872   -0.01685365
     atom    7 type  1   force =    -0.00045356   -0.00024041    0.00007485
     atom    8 type  1   force =    -0.00028170    0.00035921   -0.00027040
     atom    9 type  1   force =    -0.00008700    0.00066295    0.01935401
     atom   10 type  1   force =    -0.00032087    0.00004727   -0.01601981
     atom   11 type  1   force =    -0.00025228   -0.00048935    0.00002981
     atom   12 type  1   force =     0.00006736   -0.00018570    0.00076701
     atom   13 type  1   force =    -0.00065613    0.00030448    0.01908326
     atom   14 type  1   force =     0.00121042    0.00116224   -0.02068000
     atom   15 type  1   force =     0.00046677   -0.00004192    0.00010586
     atom   16 type  1   force =     0.00022614    0.00018692   -0.00026088
     atom   17 type  1   force =    -0.00023164   -0.00020809    0.01788651
     atom   18 type  1   force =     0.00040132    0.00039154   -0.02001068
     atom   19 type  1   force =     0.00056089    0.00020584   -0.00007130
     atom   20 type  1   force =     0.00023773    0.00027611   -0.00006516
     atom   21 type  1   force =     0.00005356   -0.00072047    0.01900534
     atom   22 type  1   force =     0.00039744    0.00056229   -0.02003331
     atom   23 type  1   force =     0.00025950    0.00028336    0.00014187
     atom   24 type  1   force =     0.00031499    0.00017997   -0.00002546
     atom   25 type  1   force =     0.00010853   -0.00003323    0.01922886
     atom   26 type  1   force =    -0.00094655   -0.00008508   -0.02014568
     atom   27 type  1   force =     0.00008959    0.00016519    0.00008093
     atom   28 type  1   force =    -0.00014481   -0.00017934   -0.00005368
     atom   29 type  1   force =    -0.00000639    0.00014209    0.01921607
     atom   30 type  1   force =    -0.00153019   -0.00077123   -0.02091823
     atom   31 type  1   force =     0.00015048    0.00012718    0.00013885
     atom   32 type  1   force =    -0.00015293   -0.00006613   -0.00028175
     atom   33 type  1   force =     0.00005139    0.00005904    0.01927352
     atom   34 type  1   force =    -0.00048909   -0.00055936   -0.02011179
     atom   35 type  1   force =     0.00013903    0.00014109    0.00001122
     atom   36 type  1   force =    -0.00022593   -0.00003946   -0.00011856
     atom   37 type  2   force =     0.00072112   -0.00046238    0.00091208

     Total force =     0.080761     Total SCF correction =     0.003647
 !ASE

     Writing output data file calc.save
 
     init_run     :     44.83s CPU     52.34s WALL (       1 calls)
     electrons    :  36304.40s CPU  41831.37s WALL (      10 calls)
     update_pot   :     34.21s CPU     36.41s WALL (       9 calls)
     forces       :    691.39s CPU    721.33s WALL (      10 calls)

     Called by init_run:
     wfcinit      :     27.47s CPU     33.47s WALL (       1 calls)
     potinit      :      1.56s CPU      1.72s WALL (       1 calls)

     Called by electrons:
     c_bands      :  22007.27s CPU  26196.26s WALL (     362 calls)
     sum_band     :   9676.20s CPU  10721.44s WALL (     362 calls)
     v_of_rho     :    218.25s CPU    255.48s WALL (     372 calls)
     newd         :   4458.59s CPU   4706.37s WALL (     372 calls)
     mix_rho      :     44.90s CPU     54.46s WALL (     362 calls)

     Called by c_bands:
     init_us_2    :    118.75s CPU    126.51s WALL (    7350 calls)
     cegterg      :  21314.16s CPU  25477.68s WALL (    3620 calls)

     Called by *egterg:
     h_psi        :  12793.47s CPU  16232.30s WALL (    8672 calls)
     s_psi        :   1756.75s CPU   1813.27s WALL (    8672 calls)
     g_psi        :     44.25s CPU     45.04s WALL (    5042 calls)
     cdiaghg      :   2149.74s CPU   2198.69s WALL (    8572 calls)

     Called by h_psi:
     add_vuspsi   :   1781.58s CPU   1832.94s WALL (    8672 calls)

     General routines
     calbec       :   2704.36s CPU   2768.16s WALL (   12392 calls)
     fft          :    215.32s CPU    254.32s WALL (   11622 calls)
     ffts         :      2.70s CPU      3.76s WALL (    1468 calls)
     fftw         :   7008.04s CPU  10974.11s WALL ( 5343840 calls)
     interpolate  :     26.44s CPU     37.15s WALL (    1468 calls)
     davcio       :      0.01s CPU      0.56s WALL (      10 calls)
 
     Parallel routines
     fft_scatter  :   3905.75s CPU   6455.64s WALL ( 5356930 calls)
 
     PWSCF        :    10h19m CPU       11h52m WALL

 
   This run was terminated on:  19:31: 1  22Feb2018            

=------------------------------------------------------------------------------=
   JOB DONE.
=------------------------------------------------------------------------------=
