  python dir          : /home/vossj/suncat/lib/python2.7/site-packages/espresso
  espresso dir        : /home/vossj/suncat/esdld/espresso-dynpy-beef/bin
  pseudo dir          : /home/alatimer/bin/psp/esp_psp_w_gbrvRu/
  ase-espresso py git : ffa2778-git



     Program PWSCF v.5.1rc2 (svn rev. ) starts on 23Mar2018 at  8:53:25 

     This program is part of the open-source Quantum ESPRESSO suite
     for quantum simulation of materials; please cite
         "P. Giannozzi et al., J. Phys.:Condens. Matter 21 395502 (2009);
          URL http://www.quantum-espresso.org", 
     in publications or presentations arising from this work. More details at
     http://www.quantum-espresso.org/quote

     Parallel version (MPI), running on    16 processors
     R & G space division:  proc/nbgrp/npool/nimage =      16
     Reading input from pw.inp
     Message from routine read_cards :
     DEPRECATED: no units specified in CELL_PARAMETERS card

     Current dimensions of program PWSCF are:
     Max number of different atomic species (ntypx) = 10
     Max number of k-points (npk) =  40000
     Max angular momentum in pseudopotentials (lmaxx) =  3
     Presently no symmetry can be used with electric field


     IMPORTANT: XC functional enforced from input :
     Exchange-correlation      = RPBE ( 1  4 28  4 0)
     Any further DFT definition will be discarded
     Please, verify this is what you really want

               file Ni.UPF: wavefunction(s)  3D renormalized

     Subspace diagonalization in iterative solution of the eigenvalue problem:
     a serial algorithm will be used

     Found symmetry operation: I + (  0.0000  0.3333  0.0000)
     This is a supercell, fractional translations are disabled
 
     Parallelization info
     --------------------
     sticks:   dense  smooth     PW     G-vecs:    dense   smooth      PW
     Min         363     145     39               122687    31011    4299
     Max         364     146     40               122712    31054    4310
     Sum        5823    2325    627              1963319   496527   68879
 
     Generating pointlists ...
     new r_m :   0.4125 (alat units)  0.7795 (a.u.) for type    1


     bravais-lattice index     =            0
     lattice parameter (alat)  =       1.8897  a.u.
     unit-cell volume          =   12553.3819 (a.u.)^3
     number of atoms/cell      =           36
     number of atomic types    =            1
     number of electrons       =       360.00
     number of Kohn-Sham states=          280
     kinetic-energy cutoff     =      44.0992  Ry
     charge density cutoff     =     440.9919  Ry
     convergence threshold     =      7.3E-07
     mixing beta               =       0.1000
     number of iterations used =           10  plain     mixing
     Exchange-correlation      = RPBE ( 1  4 28  4 0)
     nstep                     =           50


     celldm(1)=   1.889726  celldm(2)=   0.000000  celldm(3)=   0.000000
     celldm(4)=   0.000000  celldm(5)=   0.000000  celldm(6)=   0.000000

     crystal axes: (cart. coord. in units of alat)
               a(1) = (   6.162925   0.000000   0.000000 )  
               a(2) = (   0.000000   7.548011   0.000000 )  
               a(3) = (   0.000000   0.000000  39.989385 )  

     reciprocal axes: (cart. coord. in units 2 pi/alat)
               b(1) = (  0.162261  0.000000  0.000000 )  
               b(2) = (  0.000000  0.132485  0.000000 )  
               b(3) = (  0.000000  0.000000  0.025007 )  


     PseudoPot. # 1 for Ni read from file:
     /home/alatimer/bin/psp/esp_psp_w_gbrvRu/Ni.UPF
     MD5 check sum: 8b2449ee0060d9c33484ccd47bb60870
     Pseudo is Ultrasoft + core correction, Zval = 10.0
     Generated using "atomic" code by A. Dal Corso  v.5.0.2 svn rev. 9415
     Using radial grid of 1195 points,  6 beta functions with: 
                l(1) =   0
                l(2) =   0
                l(3) =   1
                l(4) =   1
                l(5) =   2
                l(6) =   2
     Q(r) pseudized with 0 coefficients 


     atomic species   valence    mass     pseudopotential
        Ni1           10.00    58.69340     Ni( 1.00)

     Starting magnetic structure 
     atomic species   magnetization
        Ni1          0.300

     No symmetry found



   Cartesian axes

     site n.     atom                  positions (alat units)
         1           Ni1 tau(   1) = (   0.0000000   1.2580018  23.9893847  )
         2           Ni1 tau(   2) = (   0.0000000   3.7740055  23.9893847  )
         3           Ni1 tau(   3) = (   0.0000000   6.2900092  23.9893847  )
         4           Ni1 tau(   4) = (   4.1086168   0.0000000  23.2630770  )
         5           Ni1 tau(   5) = (   4.1086168   2.5160037  23.2630770  )
         6           Ni1 tau(   6) = (   4.1086168   5.0320073  23.2630770  )
         7           Ni1 tau(   7) = (   2.0543084   1.2580018  22.5367693  )
         8           Ni1 tau(   8) = (   2.0543084   3.7740055  22.5367693  )
         9           Ni1 tau(   9) = (   2.0543084   6.2900092  22.5367693  )
        10           Ni1 tau(  10) = (   0.0000000   0.0000000  21.8104616  )
        11           Ni1 tau(  11) = (   0.0000000   2.5160037  21.8104616  )
        12           Ni1 tau(  12) = (   0.0000000   5.0320073  21.8104616  )
        13           Ni1 tau(  13) = (   4.1086168   1.2580018  21.0841539  )
        14           Ni1 tau(  14) = (   4.1086168   3.7740055  21.0841539  )
        15           Ni1 tau(  15) = (   4.1086168   6.2900092  21.0841539  )
        16           Ni1 tau(  16) = (   2.0543084   0.0000000  20.3578462  )
        17           Ni1 tau(  17) = (   2.0543084   2.5160037  20.3578462  )
        18           Ni1 tau(  18) = (   2.0543084   5.0320073  20.3578462  )
        19           Ni1 tau(  19) = (   0.0000000   1.2580018  19.6315385  )
        20           Ni1 tau(  20) = (   0.0000000   3.7740055  19.6315385  )
        21           Ni1 tau(  21) = (   0.0000000   6.2900092  19.6315385  )
        22           Ni1 tau(  22) = (   4.1086168   0.0000000  18.9052308  )
        23           Ni1 tau(  23) = (   4.1086168   2.5160037  18.9052308  )
        24           Ni1 tau(  24) = (   4.1086168   5.0320073  18.9052308  )
        25           Ni1 tau(  25) = (   2.0543084   1.2580018  18.1789231  )
        26           Ni1 tau(  26) = (   2.0543084   3.7740055  18.1789231  )
        27           Ni1 tau(  27) = (   2.0543084   6.2900092  18.1789231  )
        28           Ni1 tau(  28) = (   0.0000000   0.0000000  17.4526154  )
        29           Ni1 tau(  29) = (   0.0000000   2.5160037  17.4526154  )
        30           Ni1 tau(  30) = (   0.0000000   5.0320073  17.4526154  )
        31           Ni1 tau(  31) = (   4.1086168   1.2580018  16.7263077  )
        32           Ni1 tau(  32) = (   4.1086168   3.7740055  16.7263077  )
        33           Ni1 tau(  33) = (   4.1086168   6.2900092  16.7263077  )
        34           Ni1 tau(  34) = (   2.0543084   0.0000000  16.0000000  )
        35           Ni1 tau(  35) = (   2.0543084   2.5160037  16.0000000  )
        36           Ni1 tau(  36) = (   2.0543084   5.0320073  16.0000000  )

     number of k points=    10  Fermi-Dirac smearing, width (Ry)=  0.0073
                       cart. coord. in units 2pi/alat
        k(    1) = (   0.0000000   0.0000000   0.0000000), wk =   0.1111111
        k(    2) = (   0.0000000   0.0441617   0.0000000), wk =   0.2222222
        k(    3) = (   0.0540869   0.0000000   0.0000000), wk =   0.2222222
        k(    4) = (   0.0540869   0.0441617   0.0000000), wk =   0.2222222
        k(    5) = (   0.0540869  -0.0441617   0.0000000), wk =   0.2222222
        k(    6) = (   0.0000000   0.0000000   0.0000000), wk =   0.1111111
        k(    7) = (   0.0000000   0.0441617   0.0000000), wk =   0.2222222
        k(    8) = (   0.0540869   0.0000000   0.0000000), wk =   0.2222222
        k(    9) = (   0.0540869   0.0441617   0.0000000), wk =   0.2222222
        k(   10) = (   0.0540869  -0.0441617   0.0000000), wk =   0.2222222

     Dense  grid:  1963319 G-vectors     FFT dimensions: (  80,  96, 512)

     Smooth grid:   496527 G-vectors     FFT dimensions: (  50,  64, 320)

     Largest allocated arrays     est. size (Mb)     dimensions
        Kohn-Sham Wavefunctions        16.65 Mb     (    3897,  280)
        NL pseudopotentials            38.53 Mb     (    3897,  648)
        Each V/rho on FFT grid          7.50 Mb     (  245760,   2)
        Each G-vector array             0.94 Mb     (  122712)
        G-vector shells                 0.42 Mb     (   55687)
     Largest temporary arrays     est. size (Mb)     dimensions
        Auxiliary wavefunctions        66.60 Mb     (    3897, 1120)
        Each subspace H/S matrix       19.14 Mb     (    1120, 1120)
        Each <psi_i|beta_j> matrix      2.77 Mb     (     648,  280)
        Arrays for rho mixing          37.50 Mb     (  245760,   10)

     Initial potential from superposition of free atoms
     Check: negative starting charge=(component1):   -0.000953
     Check: negative starting charge=(component2):   -0.000513

     starting charge  359.99096, renormalised to  360.00000

     negative rho (up, down):  9.535E-04 5.134E-04
 
     Adding external electric field

     Computed dipole along edir(3) : 
        Dipole                0.0000 Ry au,          0.0000 Debye
        Dipole field          0.0000 Ry au
 
        Potential amp.       -0.0000 Ry
        Total length         73.6798 bohr
 
 
     Adding external electric field

     Computed dipole along edir(3) : 
        Dipole                0.0000 Ry au,          0.0000 Debye
        Dipole field          0.0000 Ry au
 
        Potential amp.       -0.0000 Ry
        Total length         73.6798 bohr
 
     Starting wfc are  324 randomized atomic wfcs

     total cpu time spent up to now is       57.3 secs

     Self-consistent Calculation

     iteration #  1     ecut=    44.10 Ry     beta=0.10
     Davidson diagonalization with overlap
     ethr =  1.00E-02,  avg # of iterations =  8.4

     negative rho (up, down):  8.706E-04 4.592E-04
 
     Adding external electric field

     Computed dipole along edir(3) : 
        Dipole               -0.0006 Ry au,         -0.0015 Debye
        Dipole field         -0.0000 Ry au
 
        Potential amp.        0.0001 Ry
        Total length         73.6798 bohr
 
 
     Adding external electric field

     Computed dipole along edir(3) : 
        Dipole               -0.0006 Ry au,         -0.0015 Debye
        Dipole field         -0.0000 Ry au
 
        Potential amp.        0.0001 Ry
        Total length         73.6798 bohr
 
 
     Magnetic moment per site:
     atom:    1    charge:    3.9313    magn:    1.1504    constr:    0.0000
     atom:    2    charge:    3.9312    magn:    1.1504    constr:    0.0000
     atom:    3    charge:    3.9313    magn:    1.1504    constr:    0.0000
     atom:    4    charge:    3.9526    magn:    1.1272    constr:    0.0000
     atom:    5    charge:    3.9526    magn:    1.1272    constr:    0.0000
     atom:    6    charge:    3.9526    magn:    1.1272    constr:    0.0000
     atom:    7    charge:    3.9646    magn:    1.1150    constr:    0.0000
     atom:    8    charge:    3.9645    magn:    1.1150    constr:    0.0000
     atom:    9    charge:    3.9646    magn:    1.1150    constr:    0.0000
     atom:   10    charge:    3.9717    magn:    1.1109    constr:    0.0000
     atom:   11    charge:    3.9717    magn:    1.1109    constr:    0.0000
     atom:   12    charge:    3.9716    magn:    1.1109    constr:    0.0000
     atom:   13    charge:    3.9738    magn:    1.1075    constr:    0.0000
     atom:   14    charge:    3.9738    magn:    1.1075    constr:    0.0000
     atom:   15    charge:    3.9738    magn:    1.1076    constr:    0.0000
     atom:   16    charge:    3.9752    magn:    1.1060    constr:    0.0000
     atom:   17    charge:    3.9752    magn:    1.1060    constr:    0.0000
     atom:   18    charge:    3.9752    magn:    1.1060    constr:    0.0000
     atom:   19    charge:    3.9747    magn:    1.1059    constr:    0.0000
     atom:   20    charge:    3.9747    magn:    1.1059    constr:    0.0000
     atom:   21    charge:    3.9747    magn:    1.1059    constr:    0.0000
     atom:   22    charge:    3.9738    magn:    1.1075    constr:    0.0000
     atom:   23    charge:    3.9738    magn:    1.1075    constr:    0.0000
     atom:   24    charge:    3.9738    magn:    1.1076    constr:    0.0000
     atom:   25    charge:    3.9697    magn:    1.1103    constr:    0.0000
     atom:   26    charge:    3.9697    magn:    1.1103    constr:    0.0000
     atom:   27    charge:    3.9697    magn:    1.1103    constr:    0.0000
     atom:   28    charge:    3.9625    magn:    1.1144    constr:    0.0000
     atom:   29    charge:    3.9625    magn:    1.1144    constr:    0.0000
     atom:   30    charge:    3.9625    magn:    1.1144    constr:    0.0000
     atom:   31    charge:    3.9526    magn:    1.1272    constr:    0.0000
     atom:   32    charge:    3.9526    magn:    1.1272    constr:    0.0000
     atom:   33    charge:    3.9526    magn:    1.1272    constr:    0.0000
     atom:   34    charge:    3.9297    magn:    1.1500    constr:    0.0000
     atom:   35    charge:    3.9297    magn:    1.1500    constr:    0.0000
     atom:   36    charge:    3.9297    magn:    1.1500    constr:    0.0000

     total cpu time spent up to now is      267.4 secs

     total energy              =   -3619.25099056 Ry
     Harris-Foulkes estimate   =   -3621.47019142 Ry
     estimated scf accuracy    <      16.88293533 Ry

     total magnetization       =    36.51 Bohr mag/cell
     absolute magnetization    =    36.51 Bohr mag/cell

     iteration #  2     ecut=    44.10 Ry     beta=0.10
     Davidson diagonalization with overlap
     ethr =  4.69E-03,  avg # of iterations =  3.3

     negative rho (up, down):  8.587E-04 5.117E-04
 
     Adding external electric field

     Computed dipole along edir(3) : 
        Dipole               -0.0002 Ry au,         -0.0004 Debye
        Dipole field         -0.0000 Ry au
 
        Potential amp.        0.0000 Ry
        Total length         73.6798 bohr
 
 
     Adding external electric field

     Computed dipole along edir(3) : 
        Dipole               -0.0002 Ry au,         -0.0004 Debye
        Dipole field         -0.0000 Ry au
 
        Potential amp.        0.0000 Ry
        Total length         73.6798 bohr
 
 
     Magnetic moment per site:
     atom:    1    charge:    3.9531    magn:    1.1234    constr:    0.0000
     atom:    2    charge:    3.9531    magn:    1.1234    constr:    0.0000
     atom:    3    charge:    3.9531    magn:    1.1234    constr:    0.0000
     atom:    4    charge:    3.9685    magn:    1.1024    constr:    0.0000
     atom:    5    charge:    3.9685    magn:    1.1024    constr:    0.0000
     atom:    6    charge:    3.9685    magn:    1.1024    constr:    0.0000
     atom:    7    charge:    3.9724    magn:    1.0947    constr:    0.0000
     atom:    8    charge:    3.9724    magn:    1.0947    constr:    0.0000
     atom:    9    charge:    3.9724    magn:    1.0947    constr:    0.0000
     atom:   10    charge:    3.9698    magn:    1.0975    constr:    0.0000
     atom:   11    charge:    3.9698    magn:    1.0975    constr:    0.0000
     atom:   12    charge:    3.9698    magn:    1.0975    constr:    0.0000
     atom:   13    charge:    3.9560    magn:    1.1073    constr:    0.0000
     atom:   14    charge:    3.9560    magn:    1.1073    constr:    0.0000
     atom:   15    charge:    3.9560    magn:    1.1074    constr:    0.0000
     atom:   16    charge:    3.9497    magn:    1.1122    constr:    0.0000
     atom:   17    charge:    3.9497    magn:    1.1122    constr:    0.0000
     atom:   18    charge:    3.9497    magn:    1.1122    constr:    0.0000
     atom:   19    charge:    3.9492    magn:    1.1121    constr:    0.0000
     atom:   20    charge:    3.9492    magn:    1.1121    constr:    0.0000
     atom:   21    charge:    3.9492    magn:    1.1121    constr:    0.0000
     atom:   22    charge:    3.9560    magn:    1.1073    constr:    0.0000
     atom:   23    charge:    3.9560    magn:    1.1073    constr:    0.0000
     atom:   24    charge:    3.9560    magn:    1.1074    constr:    0.0000
     atom:   25    charge:    3.9679    magn:    1.0969    constr:    0.0000
     atom:   26    charge:    3.9679    magn:    1.0969    constr:    0.0000
     atom:   27    charge:    3.9679    magn:    1.0969    constr:    0.0000
     atom:   28    charge:    3.9704    magn:    1.0941    constr:    0.0000
     atom:   29    charge:    3.9704    magn:    1.0941    constr:    0.0000
     atom:   30    charge:    3.9704    magn:    1.0941    constr:    0.0000
     atom:   31    charge:    3.9685    magn:    1.1024    constr:    0.0000
     atom:   32    charge:    3.9685    magn:    1.1024    constr:    0.0000
     atom:   33    charge:    3.9685    magn:    1.1024    constr:    0.0000
     atom:   34    charge:    3.9515    magn:    1.1230    constr:    0.0000
     atom:   35    charge:    3.9515    magn:    1.1230    constr:    0.0000
     atom:   36    charge:    3.9515    magn:    1.1230    constr:    0.0000

     total cpu time spent up to now is      399.6 secs

     total energy              =   -3619.55515866 Ry
     Harris-Foulkes estimate   =   -3624.44952684 Ry
     estimated scf accuracy    <     104.12137922 Ry

     total magnetization       =    42.36 Bohr mag/cell
     absolute magnetization    =    42.36 Bohr mag/cell

     iteration #  3     ecut=    44.10 Ry     beta=0.10
     Davidson diagonalization with overlap
     ethr =  4.69E-03,  avg # of iterations =  1.4

     negative rho (up, down):  8.557E-04 5.633E-04
 
     Adding external electric field

     Computed dipole along edir(3) : 
        Dipole               -0.0017 Ry au,         -0.0044 Debye
        Dipole field         -0.0000 Ry au
 
        Potential amp.        0.0003 Ry
        Total length         73.6798 bohr
 
 
     Adding external electric field

     Computed dipole along edir(3) : 
        Dipole               -0.0017 Ry au,         -0.0044 Debye
        Dipole field         -0.0000 Ry au
 
        Potential amp.        0.0003 Ry
        Total length         73.6798 bohr
 
 
     Magnetic moment per site:
     atom:    1    charge:    3.9700    magn:    1.0958    constr:    0.0000
     atom:    2    charge:    3.9700    magn:    1.0958    constr:    0.0000
     atom:    3    charge:    3.9700    magn:    1.0958    constr:    0.0000
     atom:    4    charge:    3.9691    magn:    1.0864    constr:    0.0000
     atom:    5    charge:    3.9691    magn:    1.0864    constr:    0.0000
     atom:    6    charge:    3.9691    magn:    1.0864    constr:    0.0000
     atom:    7    charge:    3.9618    magn:    1.0878    constr:    0.0000
     atom:    8    charge:    3.9618    magn:    1.0878    constr:    0.0000
     atom:    9    charge:    3.9618    magn:    1.0878    constr:    0.0000
     atom:   10    charge:    3.9628    magn:    1.0868    constr:    0.0000
     atom:   11    charge:    3.9628    magn:    1.0868    constr:    0.0000
     atom:   12    charge:    3.9628    magn:    1.0868    constr:    0.0000
     atom:   13    charge:    3.9592    magn:    1.0893    constr:    0.0000
     atom:   14    charge:    3.9592    magn:    1.0893    constr:    0.0000
     atom:   15    charge:    3.9592    magn:    1.0893    constr:    0.0000
     atom:   16    charge:    3.9570    magn:    1.0913    constr:    0.0000
     atom:   17    charge:    3.9570    magn:    1.0913    constr:    0.0000
     atom:   18    charge:    3.9570    magn:    1.0913    constr:    0.0000
     atom:   19    charge:    3.9564    magn:    1.0912    constr:    0.0000
     atom:   20    charge:    3.9564    magn:    1.0911    constr:    0.0000
     atom:   21    charge:    3.9564    magn:    1.0912    constr:    0.0000
     atom:   22    charge:    3.9592    magn:    1.0893    constr:    0.0000
     atom:   23    charge:    3.9592    magn:    1.0893    constr:    0.0000
     atom:   24    charge:    3.9592    magn:    1.0893    constr:    0.0000
     atom:   25    charge:    3.9608    magn:    1.0863    constr:    0.0000
     atom:   26    charge:    3.9608    magn:    1.0863    constr:    0.0000
     atom:   27    charge:    3.9608    magn:    1.0863    constr:    0.0000
     atom:   28    charge:    3.9598    magn:    1.0873    constr:    0.0000
     atom:   29    charge:    3.9597    magn:    1.0873    constr:    0.0000
     atom:   30    charge:    3.9597    magn:    1.0873    constr:    0.0000
     atom:   31    charge:    3.9691    magn:    1.0864    constr:    0.0000
     atom:   32    charge:    3.9691    magn:    1.0864    constr:    0.0000
     atom:   33    charge:    3.9691    magn:    1.0864    constr:    0.0000
     atom:   34    charge:    3.9684    magn:    1.0954    constr:    0.0000
     atom:   35    charge:    3.9684    magn:    1.0954    constr:    0.0000
     atom:   36    charge:    3.9684    magn:    1.0954    constr:    0.0000

     total cpu time spent up to now is      521.6 secs

     total energy              =   -3621.22063234 Ry
     Harris-Foulkes estimate   =   -3621.61946126 Ry
     estimated scf accuracy    <      10.65554656 Ry

     total magnetization       =    37.60 Bohr mag/cell
     absolute magnetization    =    37.62 Bohr mag/cell

     iteration #  4     ecut=    44.10 Ry     beta=0.10
     Davidson diagonalization with overlap
     ethr =  2.96E-03,  avg # of iterations =  1.0

     negative rho (up, down):  8.486E-04 5.639E-04
 
     Adding external electric field

     Computed dipole along edir(3) : 
        Dipole                0.0395 Ry au,          0.1004 Debye
        Dipole field          0.0000 Ry au
 
        Potential amp.       -0.0058 Ry
        Total length         73.6798 bohr
 
 
     Adding external electric field

     Computed dipole along edir(3) : 
        Dipole                0.0395 Ry au,          0.1004 Debye
        Dipole field          0.0000 Ry au
 
        Potential amp.       -0.0058 Ry
        Total length         73.6798 bohr
 
 
     Magnetic moment per site:
     atom:    1    charge:    3.9930    magn:    1.0294    constr:    0.0000
     atom:    2    charge:    3.9930    magn:    1.0294    constr:    0.0000
     atom:    3    charge:    3.9930    magn:    1.0294    constr:    0.0000
     atom:    4    charge:    3.9668    magn:    1.0400    constr:    0.0000
     atom:    5    charge:    3.9668    magn:    1.0400    constr:    0.0000
     atom:    6    charge:    3.9668    magn:    1.0400    constr:    0.0000
     atom:    7    charge:    3.9722    magn:    1.0302    constr:    0.0000
     atom:    8    charge:    3.9722    magn:    1.0302    constr:    0.0000
     atom:    9    charge:    3.9722    magn:    1.0302    constr:    0.0000
     atom:   10    charge:    3.9584    magn:    1.0397    constr:    0.0000
     atom:   11    charge:    3.9584    magn:    1.0397    constr:    0.0000
     atom:   12    charge:    3.9584    magn:    1.0397    constr:    0.0000
     atom:   13    charge:    3.9560    magn:    1.0423    constr:    0.0000
     atom:   14    charge:    3.9560    magn:    1.0423    constr:    0.0000
     atom:   15    charge:    3.9560    magn:    1.0423    constr:    0.0000
     atom:   16    charge:    3.9615    magn:    1.0384    constr:    0.0000
     atom:   17    charge:    3.9615    magn:    1.0384    constr:    0.0000
     atom:   18    charge:    3.9615    magn:    1.0384    constr:    0.0000
     atom:   19    charge:    3.9610    magn:    1.0382    constr:    0.0000
     atom:   20    charge:    3.9610    magn:    1.0382    constr:    0.0000
     atom:   21    charge:    3.9610    magn:    1.0382    constr:    0.0000
     atom:   22    charge:    3.9562    magn:    1.0422    constr:    0.0000
     atom:   23    charge:    3.9561    magn:    1.0422    constr:    0.0000
     atom:   24    charge:    3.9561    magn:    1.0422    constr:    0.0000
     atom:   25    charge:    3.9567    magn:    1.0390    constr:    0.0000
     atom:   26    charge:    3.9567    magn:    1.0390    constr:    0.0000
     atom:   27    charge:    3.9567    magn:    1.0390    constr:    0.0000
     atom:   28    charge:    3.9703    magn:    1.0294    constr:    0.0000
     atom:   29    charge:    3.9703    magn:    1.0295    constr:    0.0000
     atom:   30    charge:    3.9703    magn:    1.0295    constr:    0.0000
     atom:   31    charge:    3.9672    magn:    1.0397    constr:    0.0000
     atom:   32    charge:    3.9672    magn:    1.0397    constr:    0.0000
     atom:   33    charge:    3.9672    magn:    1.0397    constr:    0.0000
     atom:   34    charge:    3.9917    magn:    1.0287    constr:    0.0000
     atom:   35    charge:    3.9917    magn:    1.0287    constr:    0.0000
     atom:   36    charge:    3.9917    magn:    1.0287    constr:    0.0000

     total cpu time spent up to now is      641.9 secs

     total energy              =   -3621.39978801 Ry
     Harris-Foulkes estimate   =   -3621.39740251 Ry
     estimated scf accuracy    <       3.62795295 Ry

     total magnetization       =    37.09 Bohr mag/cell
     absolute magnetization    =    37.13 Bohr mag/cell

     iteration #  5     ecut=    44.10 Ry     beta=0.10
     Davidson diagonalization with overlap
     ethr =  1.01E-03,  avg # of iterations =  7.0

     negative rho (up, down):  8.381E-04 5.188E-04
 
     Adding external electric field

     Computed dipole along edir(3) : 
        Dipole               -0.6268 Ry au,         -1.5932 Debye
        Dipole field         -0.0006 Ry au
 
        Potential amp.        0.0925 Ry
        Total length         73.6798 bohr
 
 
     Adding external electric field

     Computed dipole along edir(3) : 
        Dipole               -0.6268 Ry au,         -1.5932 Debye
        Dipole field         -0.0006 Ry au
 
        Potential amp.        0.0925 Ry
        Total length         73.6798 bohr
 
 
     Magnetic moment per site:
     atom:    1    charge:    4.0165    magn:    0.9220    constr:    0.0000
     atom:    2    charge:    4.0165    magn:    0.9219    constr:    0.0000
     atom:    3    charge:    4.0165    magn:    0.9219    constr:    0.0000
     atom:    4    charge:    3.9844    magn:    0.9353    constr:    0.0000
     atom:    5    charge:    3.9844    magn:    0.9353    constr:    0.0000
     atom:    6    charge:    3.9844    magn:    0.9353    constr:    0.0000
     atom:    7    charge:    3.9756    magn:    0.9342    constr:    0.0000
     atom:    8    charge:    3.9756    magn:    0.9342    constr:    0.0000
     atom:    9    charge:    3.9756    magn:    0.9342    constr:    0.0000
     atom:   10    charge:    3.9587    magn:    0.9448    constr:    0.0000
     atom:   11    charge:    3.9587    magn:    0.9448    constr:    0.0000
     atom:   12    charge:    3.9587    magn:    0.9448    constr:    0.0000
     atom:   13    charge:    3.9625    magn:    0.9437    constr:    0.0000
     atom:   14    charge:    3.9625    magn:    0.9437    constr:    0.0000
     atom:   15    charge:    3.9625    magn:    0.9437    constr:    0.0000
     atom:   16    charge:    3.9630    magn:    0.9442    constr:    0.0000
     atom:   17    charge:    3.9630    magn:    0.9442    constr:    0.0000
     atom:   18    charge:    3.9630    magn:    0.9442    constr:    0.0000
     atom:   19    charge:    3.9618    magn:    0.9446    constr:    0.0000
     atom:   20    charge:    3.9618    magn:    0.9446    constr:    0.0000
     atom:   21    charge:    3.9618    magn:    0.9447    constr:    0.0000
     atom:   22    charge:    3.9613    magn:    0.9448    constr:    0.0000
     atom:   23    charge:    3.9613    magn:    0.9448    constr:    0.0000
     atom:   24    charge:    3.9613    magn:    0.9448    constr:    0.0000
     atom:   25    charge:    3.9546    magn:    0.9462    constr:    0.0000
     atom:   26    charge:    3.9546    magn:    0.9462    constr:    0.0000
     atom:   27    charge:    3.9546    magn:    0.9462    constr:    0.0000
     atom:   28    charge:    3.9699    magn:    0.9369    constr:    0.0000
     atom:   29    charge:    3.9699    magn:    0.9369    constr:    0.0000
     atom:   30    charge:    3.9699    magn:    0.9369    constr:    0.0000
     atom:   31    charge:    3.9816    magn:    0.9378    constr:    0.0000
     atom:   32    charge:    3.9816    magn:    0.9378    constr:    0.0000
     atom:   33    charge:    3.9816    magn:    0.9378    constr:    0.0000
     atom:   34    charge:    4.0083    magn:    0.9277    constr:    0.0000
     atom:   35    charge:    4.0083    magn:    0.9277    constr:    0.0000
     atom:   36    charge:    4.0083    magn:    0.9277    constr:    0.0000

     total cpu time spent up to now is      790.3 secs

     total energy              =   -3621.80544118 Ry
     Harris-Foulkes estimate   =   -3621.63153671 Ry
     estimated scf accuracy    <       7.70052832 Ry

     total magnetization       =    37.21 Bohr mag/cell
     absolute magnetization    =    37.31 Bohr mag/cell

     iteration #  6     ecut=    44.10 Ry     beta=0.10
     Davidson diagonalization with overlap
     ethr =  1.01E-03,  avg # of iterations =  6.9

     negative rho (up, down):  8.321E-04 5.485E-04
 
     Adding external electric field

     Computed dipole along edir(3) : 
        Dipole                0.0288 Ry au,          0.0732 Debye
        Dipole field          0.0000 Ry au
 
        Potential amp.       -0.0042 Ry
        Total length         73.6798 bohr
 
 
     Adding external electric field

     Computed dipole along edir(3) : 
        Dipole                0.0288 Ry au,          0.0732 Debye
        Dipole field          0.0000 Ry au
 
        Potential amp.       -0.0042 Ry
        Total length         73.6798 bohr
 
 
     Magnetic moment per site:
     atom:    1    charge:    4.0159    magn:    0.9045    constr:    0.0000
     atom:    2    charge:    4.0159    magn:    0.9045    constr:    0.0000
     atom:    3    charge:    4.0159    magn:    0.9045    constr:    0.0000
     atom:    4    charge:    3.9854    magn:    0.9162    constr:    0.0000
     atom:    5    charge:    3.9854    magn:    0.9162    constr:    0.0000
     atom:    6    charge:    3.9854    magn:    0.9162    constr:    0.0000
     atom:    7    charge:    3.9740    magn:    0.9166    constr:    0.0000
     atom:    8    charge:    3.9740    magn:    0.9166    constr:    0.0000
     atom:    9    charge:    3.9740    magn:    0.9166    constr:    0.0000
     atom:   10    charge:    3.9582    magn:    0.9260    constr:    0.0000
     atom:   11    charge:    3.9582    magn:    0.9260    constr:    0.0000
     atom:   12    charge:    3.9582    magn:    0.9260    constr:    0.0000
     atom:   13    charge:    3.9629    magn:    0.9244    constr:    0.0000
     atom:   14    charge:    3.9629    magn:    0.9244    constr:    0.0000
     atom:   15    charge:    3.9629    magn:    0.9244    constr:    0.0000
     atom:   16    charge:    3.9630    magn:    0.9252    constr:    0.0000
     atom:   17    charge:    3.9630    magn:    0.9253    constr:    0.0000
     atom:   18    charge:    3.9630    magn:    0.9253    constr:    0.0000
     atom:   19    charge:    3.9623    magn:    0.9253    constr:    0.0000
     atom:   20    charge:    3.9624    magn:    0.9253    constr:    0.0000
     atom:   21    charge:    3.9624    magn:    0.9253    constr:    0.0000
     atom:   22    charge:    3.9632    magn:    0.9242    constr:    0.0000
     atom:   23    charge:    3.9632    magn:    0.9242    constr:    0.0000
     atom:   24    charge:    3.9632    magn:    0.9242    constr:    0.0000
     atom:   25    charge:    3.9560    magn:    0.9259    constr:    0.0000
     atom:   26    charge:    3.9560    magn:    0.9259    constr:    0.0000
     atom:   27    charge:    3.9560    magn:    0.9259    constr:    0.0000
     atom:   28    charge:    3.9714    magn:    0.9168    constr:    0.0000
     atom:   29    charge:    3.9714    magn:    0.9168    constr:    0.0000
     atom:   30    charge:    3.9714    magn:    0.9168    constr:    0.0000
     atom:   31    charge:    3.9866    magn:    0.9153    constr:    0.0000
     atom:   32    charge:    3.9866    magn:    0.9152    constr:    0.0000
     atom:   33    charge:    3.9866    magn:    0.9152    constr:    0.0000
     atom:   34    charge:    4.0138    magn:    0.9051    constr:    0.0000
     atom:   35    charge:    4.0138    magn:    0.9051    constr:    0.0000
     atom:   36    charge:    4.0138    magn:    0.9051    constr:    0.0000

     total cpu time spent up to now is      946.4 secs

     total energy              =   -3621.56595384 Ry
     Harris-Foulkes estimate   =   -3622.58864785 Ry
     estimated scf accuracy    <     137.23771794 Ry

     total magnetization       =    36.40 Bohr mag/cell
     absolute magnetization    =    36.75 Bohr mag/cell

     iteration #  7     ecut=    44.10 Ry     beta=0.10
     Davidson diagonalization with overlap
     ethr =  1.01E-03,  avg # of iterations =  2.7

     negative rho (up, down):  8.255E-04 5.613E-04
 
     Adding external electric field

     Computed dipole along edir(3) : 
        Dipole               -0.0021 Ry au,         -0.0053 Debye
        Dipole field         -0.0000 Ry au
 
        Potential amp.        0.0003 Ry
        Total length         73.6798 bohr
 
 
     Adding external electric field

     Computed dipole along edir(3) : 
        Dipole               -0.0021 Ry au,         -0.0053 Debye
        Dipole field         -0.0000 Ry au
 
        Potential amp.        0.0003 Ry
        Total length         73.6798 bohr
 
 
     Magnetic moment per site:
     atom:    1    charge:    3.9988    magn:    0.9087    constr:    0.0000
     atom:    2    charge:    3.9988    magn:    0.9087    constr:    0.0000
     atom:    3    charge:    3.9988    magn:    0.9087    constr:    0.0000
     atom:    4    charge:    3.9825    magn:    0.9084    constr:    0.0000
     atom:    5    charge:    3.9825    magn:    0.9084    constr:    0.0000
     atom:    6    charge:    3.9825    magn:    0.9084    constr:    0.0000
     atom:    7    charge:    3.9715    magn:    0.9087    constr:    0.0000
     atom:    8    charge:    3.9715    magn:    0.9087    constr:    0.0000
     atom:    9    charge:    3.9715    magn:    0.9087    constr:    0.0000
     atom:   10    charge:    3.9642    magn:    0.9127    constr:    0.0000
     atom:   11    charge:    3.9642    magn:    0.9127    constr:    0.0000
     atom:   12    charge:    3.9642    magn:    0.9127    constr:    0.0000
     atom:   13    charge:    3.9620    magn:    0.9156    constr:    0.0000
     atom:   14    charge:    3.9620    magn:    0.9157    constr:    0.0000
     atom:   15    charge:    3.9620    magn:    0.9157    constr:    0.0000
     atom:   16    charge:    3.9641    magn:    0.9150    constr:    0.0000
     atom:   17    charge:    3.9641    magn:    0.9150    constr:    0.0000
     atom:   18    charge:    3.9641    magn:    0.9150    constr:    0.0000
     atom:   19    charge:    3.9637    magn:    0.9148    constr:    0.0000
     atom:   20    charge:    3.9636    magn:    0.9149    constr:    0.0000
     atom:   21    charge:    3.9637    magn:    0.9149    constr:    0.0000
     atom:   22    charge:    3.9615    magn:    0.9160    constr:    0.0000
     atom:   23    charge:    3.9615    magn:    0.9160    constr:    0.0000
     atom:   24    charge:    3.9615    magn:    0.9160    constr:    0.0000
     atom:   25    charge:    3.9624    magn:    0.9122    constr:    0.0000
     atom:   26    charge:    3.9624    magn:    0.9122    constr:    0.0000
     atom:   27    charge:    3.9624    magn:    0.9122    constr:    0.0000
     atom:   28    charge:    3.9702    magn:    0.9078    constr:    0.0000
     atom:   29    charge:    3.9702    magn:    0.9078    constr:    0.0000
     atom:   30    charge:    3.9702    magn:    0.9078    constr:    0.0000
     atom:   31    charge:    3.9805    magn:    0.9100    constr:    0.0000
     atom:   32    charge:    3.9805    magn:    0.9100    constr:    0.0000
     atom:   33    charge:    3.9805    magn:    0.9100    constr:    0.0000
     atom:   34    charge:    3.9978    magn:    0.9084    constr:    0.0000
     atom:   35    charge:    3.9978    magn:    0.9084    constr:    0.0000
     atom:   36    charge:    3.9978    magn:    0.9084    constr:    0.0000

     total cpu time spent up to now is     1074.7 secs

     total energy              =   -3621.83597674 Ry
     Harris-Foulkes estimate   =   -3622.09453293 Ry
     estimated scf accuracy    <       8.88477248 Ry

     total magnetization       =    36.28 Bohr mag/cell
     absolute magnetization    =    36.86 Bohr mag/cell

     iteration #  8     ecut=    44.10 Ry     beta=0.10
     Davidson diagonalization with overlap
     ethr =  1.01E-03,  avg # of iterations =  1.0

     negative rho (up, down):  8.146E-04 5.476E-04
 
     Adding external electric field

     Computed dipole along edir(3) : 
        Dipole               -0.0031 Ry au,         -0.0079 Debye
        Dipole field         -0.0000 Ry au
 
        Potential amp.        0.0005 Ry
        Total length         73.6798 bohr
 
 
     Adding external electric field

     Computed dipole along edir(3) : 
        Dipole               -0.0031 Ry au,         -0.0079 Debye
        Dipole field         -0.0000 Ry au
 
        Potential amp.        0.0005 Ry
        Total length         73.6798 bohr
 
 
     Magnetic moment per site:
     atom:    1    charge:    3.9920    magn:    0.8621    constr:    0.0000
     atom:    2    charge:    3.9921    magn:    0.8620    constr:    0.0000
     atom:    3    charge:    3.9920    magn:    0.8620    constr:    0.0000
     atom:    4    charge:    3.9721    magn:    0.8661    constr:    0.0000
     atom:    5    charge:    3.9721    magn:    0.8661    constr:    0.0000
     atom:    6    charge:    3.9721    magn:    0.8661    constr:    0.0000
     atom:    7    charge:    3.9703    magn:    0.8594    constr:    0.0000
     atom:    8    charge:    3.9703    magn:    0.8593    constr:    0.0000
     atom:    9    charge:    3.9703    magn:    0.8594    constr:    0.0000
     atom:   10    charge:    3.9665    magn:    0.8623    constr:    0.0000
     atom:   11    charge:    3.9665    magn:    0.8623    constr:    0.0000
     atom:   12    charge:    3.9665    magn:    0.8623    constr:    0.0000
     atom:   13    charge:    3.9652    magn:    0.8642    constr:    0.0000
     atom:   14    charge:    3.9652    magn:    0.8642    constr:    0.0000
     atom:   15    charge:    3.9652    magn:    0.8642    constr:    0.0000
     atom:   16    charge:    3.9623    magn:    0.8674    constr:    0.0000
     atom:   17    charge:    3.9623    magn:    0.8674    constr:    0.0000
     atom:   18    charge:    3.9623    magn:    0.8674    constr:    0.0000
     atom:   19    charge:    3.9613    magn:    0.8677    constr:    0.0000
     atom:   20    charge:    3.9613    magn:    0.8677    constr:    0.0000
     atom:   21    charge:    3.9613    magn:    0.8677    constr:    0.0000
     atom:   22    charge:    3.9661    magn:    0.8634    constr:    0.0000
     atom:   23    charge:    3.9661    magn:    0.8634    constr:    0.0000
     atom:   24    charge:    3.9662    magn:    0.8634    constr:    0.0000
     atom:   25    charge:    3.9640    magn:    0.8623    constr:    0.0000
     atom:   26    charge:    3.9641    magn:    0.8623    constr:    0.0000
     atom:   27    charge:    3.9641    magn:    0.8623    constr:    0.0000
     atom:   28    charge:    3.9669    magn:    0.8601    constr:    0.0000
     atom:   29    charge:    3.9669    magn:    0.8601    constr:    0.0000
     atom:   30    charge:    3.9669    magn:    0.8601    constr:    0.0000
     atom:   31    charge:    3.9753    magn:    0.8637    constr:    0.0000
     atom:   32    charge:    3.9753    magn:    0.8637    constr:    0.0000
     atom:   33    charge:    3.9753    magn:    0.8636    constr:    0.0000
     atom:   34    charge:    3.9884    magn:    0.8638    constr:    0.0000
     atom:   35    charge:    3.9884    magn:    0.8638    constr:    0.0000
     atom:   36    charge:    3.9884    magn:    0.8638    constr:    0.0000

     total cpu time spent up to now is     1194.9 secs

     total energy              =   -3622.13490758 Ry
     Harris-Foulkes estimate   =   -3621.99584655 Ry
     estimated scf accuracy    <       1.22482212 Ry

     total magnetization       =    35.24 Bohr mag/cell
     absolute magnetization    =    35.93 Bohr mag/cell

     iteration #  9     ecut=    44.10 Ry     beta=0.10
     Davidson diagonalization with overlap
     ethr =  3.40E-04,  avg # of iterations =  3.9

     negative rho (up, down):  8.454E-04 6.680E-04
 
     Adding external electric field

     Computed dipole along edir(3) : 
        Dipole                0.0100 Ry au,          0.0255 Debye
        Dipole field          0.0000 Ry au
 
        Potential amp.       -0.0015 Ry
        Total length         73.6798 bohr
 
 
     Adding external electric field

     Computed dipole along edir(3) : 
        Dipole                0.0100 Ry au,          0.0255 Debye
        Dipole field          0.0000 Ry au
 
        Potential amp.       -0.0015 Ry
        Total length         73.6798 bohr
 
 
     Magnetic moment per site:
     atom:    1    charge:    3.9856    magn:    0.6730    constr:    0.0000
     atom:    2    charge:    3.9856    magn:    0.6730    constr:    0.0000
     atom:    3    charge:    3.9856    magn:    0.6730    constr:    0.0000
     atom:    4    charge:    3.9682    magn:    0.6811    constr:    0.0000
     atom:    5    charge:    3.9681    magn:    0.6811    constr:    0.0000
     atom:    6    charge:    3.9681    magn:    0.6811    constr:    0.0000
     atom:    7    charge:    3.9668    magn:    0.6722    constr:    0.0000
     atom:    8    charge:    3.9667    magn:    0.6722    constr:    0.0000
     atom:    9    charge:    3.9667    magn:    0.6722    constr:    0.0000
     atom:   10    charge:    3.9619    magn:    0.6794    constr:    0.0000
     atom:   11    charge:    3.9619    magn:    0.6794    constr:    0.0000
     atom:   12    charge:    3.9619    magn:    0.6795    constr:    0.0000
     atom:   13    charge:    3.9694    magn:    0.6744    constr:    0.0000
     atom:   14    charge:    3.9694    magn:    0.6745    constr:    0.0000
     atom:   15    charge:    3.9694    magn:    0.6745    constr:    0.0000
     atom:   16    charge:    3.9671    magn:    0.6776    constr:    0.0000
     atom:   17    charge:    3.9671    magn:    0.6776    constr:    0.0000
     atom:   18    charge:    3.9670    magn:    0.6777    constr:    0.0000
     atom:   19    charge:    3.9670    magn:    0.6774    constr:    0.0000
     atom:   20    charge:    3.9670    magn:    0.6774    constr:    0.0000
     atom:   21    charge:    3.9670    magn:    0.6774    constr:    0.0000
     atom:   22    charge:    3.9664    magn:    0.6768    constr:    0.0000
     atom:   23    charge:    3.9664    magn:    0.6768    constr:    0.0000
     atom:   24    charge:    3.9663    magn:    0.6769    constr:    0.0000
     atom:   25    charge:    3.9604    magn:    0.6790    constr:    0.0000
     atom:   26    charge:    3.9603    magn:    0.6790    constr:    0.0000
     atom:   27    charge:    3.9603    magn:    0.6790    constr:    0.0000
     atom:   28    charge:    3.9646    magn:    0.6723    constr:    0.0000
     atom:   29    charge:    3.9646    magn:    0.6723    constr:    0.0000
     atom:   30    charge:    3.9645    magn:    0.6724    constr:    0.0000
     atom:   31    charge:    3.9669    magn:    0.6818    constr:    0.0000
     atom:   32    charge:    3.9668    magn:    0.6818    constr:    0.0000
     atom:   33    charge:    3.9668    magn:    0.6819    constr:    0.0000
     atom:   34    charge:    3.9860    magn:    0.6720    constr:    0.0000
     atom:   35    charge:    3.9860    magn:    0.6720    constr:    0.0000
     atom:   36    charge:    3.9859    magn:    0.6721    constr:    0.0000

     total cpu time spent up to now is     1328.9 secs

     total energy              =   -3622.52052129 Ry
     Harris-Foulkes estimate   =   -3622.16483202 Ry
     estimated scf accuracy    <       1.73185326 Ry

     total magnetization       =    33.62 Bohr mag/cell
     absolute magnetization    =    34.69 Bohr mag/cell

     iteration # 10     ecut=    44.10 Ry     beta=0.10
     Davidson diagonalization with overlap
     ethr =  3.40E-04,  avg # of iterations =  1.6

     negative rho (up, down):  9.275E-04 9.236E-04
 
     Adding external electric field

     Computed dipole along edir(3) : 
        Dipole               -0.0269 Ry au,         -0.0684 Debye
        Dipole field         -0.0000 Ry au
 
        Potential amp.        0.0040 Ry
        Total length         73.6798 bohr
 
 
     Adding external electric field

     Computed dipole along edir(3) : 
        Dipole               -0.0269 Ry au,         -0.0684 Debye
        Dipole field         -0.0000 Ry au
 
        Potential amp.        0.0040 Ry
        Total length         73.6798 bohr
 
 
     Magnetic moment per site:
     atom:    1    charge:    3.9966    magn:    0.5276    constr:    0.0000
     atom:    2    charge:    3.9969    magn:    0.5274    constr:    0.0000
     atom:    3    charge:    3.9968    magn:    0.5275    constr:    0.0000
     atom:    4    charge:    3.9684    magn:    0.5473    constr:    0.0000
     atom:    5    charge:    3.9685    magn:    0.5473    constr:    0.0000
     atom:    6    charge:    3.9686    magn:    0.5472    constr:    0.0000
     atom:    7    charge:    3.9657    magn:    0.5366    constr:    0.0000
     atom:    8    charge:    3.9658    magn:    0.5365    constr:    0.0000
     atom:    9    charge:    3.9658    magn:    0.5365    constr:    0.0000
     atom:   10    charge:    3.9647    magn:    0.5423    constr:    0.0000
     atom:   11    charge:    3.9647    magn:    0.5422    constr:    0.0000
     atom:   12    charge:    3.9649    magn:    0.5422    constr:    0.0000
     atom:   13    charge:    3.9661    magn:    0.5409    constr:    0.0000
     atom:   14    charge:    3.9662    magn:    0.5408    constr:    0.0000
     atom:   15    charge:    3.9662    magn:    0.5408    constr:    0.0000
     atom:   16    charge:    3.9717    magn:    0.5385    constr:    0.0000
     atom:   17    charge:    3.9717    magn:    0.5384    constr:    0.0000
     atom:   18    charge:    3.9719    magn:    0.5384    constr:    0.0000
     atom:   19    charge:    3.9717    magn:    0.5381    constr:    0.0000
     atom:   20    charge:    3.9718    magn:    0.5380    constr:    0.0000
     atom:   21    charge:    3.9718    magn:    0.5380    constr:    0.0000
     atom:   22    charge:    3.9702    magn:    0.5383    constr:    0.0000
     atom:   23    charge:    3.9702    magn:    0.5383    constr:    0.0000
     atom:   24    charge:    3.9704    magn:    0.5382    constr:    0.0000
     atom:   25    charge:    3.9634    magn:    0.5416    constr:    0.0000
     atom:   26    charge:    3.9635    magn:    0.5415    constr:    0.0000
     atom:   27    charge:    3.9635    magn:    0.5415    constr:    0.0000
     atom:   28    charge:    3.9645    magn:    0.5360    constr:    0.0000
     atom:   29    charge:    3.9645    magn:    0.5360    constr:    0.0000
     atom:   30    charge:    3.9647    magn:    0.5359    constr:    0.0000
     atom:   31    charge:    3.9720    magn:    0.5440    constr:    0.0000
     atom:   32    charge:    3.9722    magn:    0.5439    constr:    0.0000
     atom:   33    charge:    3.9722    magn:    0.5439    constr:    0.0000
     atom:   34    charge:    3.9900    magn:    0.5324    constr:    0.0000
     atom:   35    charge:    3.9900    magn:    0.5324    constr:    0.0000
     atom:   36    charge:    3.9903    magn:    0.5322    constr:    0.0000

     total cpu time spent up to now is     1451.8 secs

     total energy              =   -3622.78389877 Ry
     Harris-Foulkes estimate   =   -3622.62125495 Ry
     estimated scf accuracy    <       1.56054360 Ry

     total magnetization       =    30.24 Bohr mag/cell
     absolute magnetization    =    32.53 Bohr mag/cell

     iteration # 11     ecut=    44.10 Ry     beta=0.10
     Davidson diagonalization with overlap
     ethr =  3.40E-04,  avg # of iterations =  4.6

     negative rho (up, down):  9.548E-04 1.021E-03
 
     Adding external electric field

     Computed dipole along edir(3) : 
        Dipole                0.0134 Ry au,          0.0341 Debye
        Dipole field          0.0000 Ry au
 
        Potential amp.       -0.0020 Ry
        Total length         73.6798 bohr
 
 
     Adding external electric field

     Computed dipole along edir(3) : 
        Dipole                0.0134 Ry au,          0.0341 Debye
        Dipole field          0.0000 Ry au
 
        Potential amp.       -0.0020 Ry
        Total length         73.6798 bohr
 
 
     Magnetic moment per site:
     atom:    1    charge:    3.9891    magn:    0.4704    constr:    0.0000
     atom:    2    charge:    3.9887    magn:    0.4707    constr:    0.0000
     atom:    3    charge:    3.9888    magn:    0.4707    constr:    0.0000
     atom:    4    charge:    3.9716    magn:    0.4841    constr:    0.0000
     atom:    5    charge:    3.9716    magn:    0.4841    constr:    0.0000
     atom:    6    charge:    3.9716    magn:    0.4841    constr:    0.0000
     atom:    7    charge:    3.9692    magn:    0.4719    constr:    0.0000
     atom:    8    charge:    3.9692    magn:    0.4719    constr:    0.0000
     atom:    9    charge:    3.9692    magn:    0.4719    constr:    0.0000
     atom:   10    charge:    3.9705    magn:    0.4761    constr:    0.0000
     atom:   11    charge:    3.9706    magn:    0.4761    constr:    0.0000
     atom:   12    charge:    3.9705    magn:    0.4761    constr:    0.0000
     atom:   13    charge:    3.9697    magn:    0.4759    constr:    0.0000
     atom:   14    charge:    3.9697    magn:    0.4758    constr:    0.0000
     atom:   15    charge:    3.9697    magn:    0.4758    constr:    0.0000
     atom:   16    charge:    3.9734    magn:    0.4740    constr:    0.0000
     atom:   17    charge:    3.9734    magn:    0.4740    constr:    0.0000
     atom:   18    charge:    3.9734    magn:    0.4740    constr:    0.0000
     atom:   19    charge:    3.9716    magn:    0.4748    constr:    0.0000
     atom:   20    charge:    3.9716    magn:    0.4748    constr:    0.0000
     atom:   21    charge:    3.9716    magn:    0.4748    constr:    0.0000
     atom:   22    charge:    3.9726    magn:    0.4738    constr:    0.0000
     atom:   23    charge:    3.9726    magn:    0.4738    constr:    0.0000
     atom:   24    charge:    3.9726    magn:    0.4738    constr:    0.0000
     atom:   25    charge:    3.9669    magn:    0.4771    constr:    0.0000
     atom:   26    charge:    3.9669    magn:    0.4772    constr:    0.0000
     atom:   27    charge:    3.9669    magn:    0.4771    constr:    0.0000
     atom:   28    charge:    3.9642    magn:    0.4741    constr:    0.0000
     atom:   29    charge:    3.9642    magn:    0.4742    constr:    0.0000
     atom:   30    charge:    3.9641    magn:    0.4742    constr:    0.0000
     atom:   31    charge:    3.9718    magn:    0.4832    constr:    0.0000
     atom:   32    charge:    3.9716    magn:    0.4833    constr:    0.0000
     atom:   33    charge:    3.9716    magn:    0.4833    constr:    0.0000
     atom:   34    charge:    3.9895    magn:    0.4705    constr:    0.0000
     atom:   35    charge:    3.9896    magn:    0.4705    constr:    0.0000
     atom:   36    charge:    3.9892    magn:    0.4707    constr:    0.0000

     total cpu time spent up to now is     1588.6 secs

     total energy              =   -3622.76026745 Ry
     Harris-Foulkes estimate   =   -3622.88046868 Ry
     estimated scf accuracy    <       8.23198022 Ry

     total magnetization       =    27.22 Bohr mag/cell
     absolute magnetization    =    30.66 Bohr mag/cell

     iteration # 12     ecut=    44.10 Ry     beta=0.10
     Davidson diagonalization with overlap
     ethr =  3.40E-04,  avg # of iterations =  4.7

     negative rho (up, down):  9.204E-04 9.427E-04
 
     Adding external electric field

     Computed dipole along edir(3) : 
        Dipole                0.0004 Ry au,          0.0010 Debye
        Dipole field          0.0000 Ry au
 
        Potential amp.       -0.0001 Ry
        Total length         73.6798 bohr
 
 
     Adding external electric field

     Computed dipole along edir(3) : 
        Dipole                0.0004 Ry au,          0.0010 Debye
        Dipole field          0.0000 Ry au
 
        Potential amp.       -0.0001 Ry
        Total length         73.6798 bohr
 
 
     Magnetic moment per site:
     atom:    1    charge:    3.9772    magn:    0.4746    constr:    0.0000
     atom:    2    charge:    3.9775    magn:    0.4744    constr:    0.0000
     atom:    3    charge:    3.9774    magn:    0.4744    constr:    0.0000
     atom:    4    charge:    3.9682    magn:    0.4822    constr:    0.0000
     atom:    5    charge:    3.9682    magn:    0.4822    constr:    0.0000
     atom:    6    charge:    3.9683    magn:    0.4822    constr:    0.0000
     atom:    7    charge:    3.9666    magn:    0.4697    constr:    0.0000
     atom:    8    charge:    3.9667    magn:    0.4697    constr:    0.0000
     atom:    9    charge:    3.9667    magn:    0.4697    constr:    0.0000
     atom:   10    charge:    3.9717    magn:    0.4715    constr:    0.0000
     atom:   11    charge:    3.9717    magn:    0.4715    constr:    0.0000
     atom:   12    charge:    3.9717    magn:    0.4715    constr:    0.0000
     atom:   13    charge:    3.9726    magn:    0.4699    constr:    0.0000
     atom:   14    charge:    3.9726    magn:    0.4699    constr:    0.0000
     atom:   15    charge:    3.9726    magn:    0.4699    constr:    0.0000
     atom:   16    charge:    3.9716    magn:    0.4707    constr:    0.0000
     atom:   17    charge:    3.9716    magn:    0.4707    constr:    0.0000
     atom:   18    charge:    3.9716    magn:    0.4707    constr:    0.0000
     atom:   19    charge:    3.9713    magn:    0.4706    constr:    0.0000
     atom:   20    charge:    3.9713    magn:    0.4706    constr:    0.0000
     atom:   21    charge:    3.9713    magn:    0.4706    constr:    0.0000
     atom:   22    charge:    3.9725    magn:    0.4696    constr:    0.0000
     atom:   23    charge:    3.9725    magn:    0.4696    constr:    0.0000
     atom:   24    charge:    3.9725    magn:    0.4696    constr:    0.0000
     atom:   25    charge:    3.9698    magn:    0.4715    constr:    0.0000
     atom:   26    charge:    3.9699    magn:    0.4714    constr:    0.0000
     atom:   27    charge:    3.9699    magn:    0.4714    constr:    0.0000
     atom:   28    charge:    3.9656    magn:    0.4693    constr:    0.0000
     atom:   29    charge:    3.9656    magn:    0.4693    constr:    0.0000
     atom:   30    charge:    3.9656    magn:    0.4693    constr:    0.0000
     atom:   31    charge:    3.9673    magn:    0.4821    constr:    0.0000
     atom:   32    charge:    3.9674    magn:    0.4821    constr:    0.0000
     atom:   33    charge:    3.9674    magn:    0.4821    constr:    0.0000
     atom:   34    charge:    3.9759    magn:    0.4756    constr:    0.0000
     atom:   35    charge:    3.9759    magn:    0.4756    constr:    0.0000
     atom:   36    charge:    3.9762    magn:    0.4754    constr:    0.0000

     total cpu time spent up to now is     1724.0 secs

     total energy              =   -3622.73965406 Ry
     Harris-Foulkes estimate   =   -3622.82209865 Ry
     estimated scf accuracy    <       1.42404310 Ry

     total magnetization       =    25.43 Bohr mag/cell
     absolute magnetization    =    29.43 Bohr mag/cell

     iteration # 13     ecut=    44.10 Ry     beta=0.10
     Davidson diagonalization with overlap
     ethr =  3.40E-04,  avg # of iterations =  1.0

     negative rho (up, down):  9.221E-04 9.557E-04
 
     Adding external electric field

     Computed dipole along edir(3) : 
        Dipole               -0.0011 Ry au,         -0.0028 Debye
        Dipole field         -0.0000 Ry au
 
        Potential amp.        0.0002 Ry
        Total length         73.6798 bohr
 
 
     Adding external electric field

     Computed dipole along edir(3) : 
        Dipole               -0.0011 Ry au,         -0.0028 Debye
        Dipole field         -0.0000 Ry au
 
        Potential amp.        0.0002 Ry
        Total length         73.6798 bohr
 
 
     Magnetic moment per site:
     atom:    1    charge:    3.9824    magn:    0.4370    constr:    0.0000
     atom:    2    charge:    3.9820    magn:    0.4373    constr:    0.0000
     atom:    3    charge:    3.9820    magn:    0.4372    constr:    0.0000
     atom:    4    charge:    3.9717    magn:    0.4455    constr:    0.0000
     atom:    5    charge:    3.9717    magn:    0.4455    constr:    0.0000
     atom:    6    charge:    3.9715    magn:    0.4457    constr:    0.0000
     atom:    7    charge:    3.9707    magn:    0.4310    constr:    0.0000
     atom:    8    charge:    3.9703    magn:    0.4312    constr:    0.0000
     atom:    9    charge:    3.9704    magn:    0.4312    constr:    0.0000
     atom:   10    charge:    3.9723    magn:    0.4326    constr:    0.0000
     atom:   11    charge:    3.9723    magn:    0.4326    constr:    0.0000
     atom:   12    charge:    3.9721    magn:    0.4328    constr:    0.0000
     atom:   13    charge:    3.9735    magn:    0.4302    constr:    0.0000
     atom:   14    charge:    3.9733    magn:    0.4303    constr:    0.0000
     atom:   15    charge:    3.9733    magn:    0.4303    constr:    0.0000
     atom:   16    charge:    3.9720    magn:    0.4306    constr:    0.0000
     atom:   17    charge:    3.9720    magn:    0.4306    constr:    0.0000
     atom:   18    charge:    3.9720    magn:    0.4307    constr:    0.0000
     atom:   19    charge:    3.9712    magn:    0.4309    constr:    0.0000
     atom:   20    charge:    3.9711    magn:    0.4310    constr:    0.0000
     atom:   21    charge:    3.9711    magn:    0.4310    constr:    0.0000
     atom:   22    charge:    3.9721    magn:    0.4305    constr:    0.0000
     atom:   23    charge:    3.9721    magn:    0.4305    constr:    0.0000
     atom:   24    charge:    3.9720    magn:    0.4306    constr:    0.0000
     atom:   25    charge:    3.9709    magn:    0.4324    constr:    0.0000
     atom:   26    charge:    3.9706    magn:    0.4326    constr:    0.0000
     atom:   27    charge:    3.9706    magn:    0.4326    constr:    0.0000
     atom:   28    charge:    3.9674    magn:    0.4320    constr:    0.0000
     atom:   29    charge:    3.9674    magn:    0.4320    constr:    0.0000
     atom:   30    charge:    3.9671    magn:    0.4322    constr:    0.0000
     atom:   31    charge:    3.9733    magn:    0.4440    constr:    0.0000
     atom:   32    charge:    3.9730    magn:    0.4442    constr:    0.0000
     atom:   33    charge:    3.9730    magn:    0.4442    constr:    0.0000
     atom:   34    charge:    3.9801    magn:    0.4385    constr:    0.0000
     atom:   35    charge:    3.9801    magn:    0.4385    constr:    0.0000
     atom:   36    charge:    3.9793    magn:    0.4390    constr:    0.0000

     total cpu time spent up to now is     1844.3 secs

     total energy              =   -3622.78396159 Ry
     Harris-Foulkes estimate   =   -3622.79941304 Ry
     estimated scf accuracy    <       0.44092250 Ry

     total magnetization       =    24.83 Bohr mag/cell
     absolute magnetization    =    28.87 Bohr mag/cell

     iteration # 14     ecut=    44.10 Ry     beta=0.10
     Davidson diagonalization with overlap
     ethr =  1.22E-04,  avg # of iterations =  3.5

     negative rho (up, down):  9.065E-04 9.264E-04
 
     Adding external electric field

     Computed dipole along edir(3) : 
        Dipole               -0.0051 Ry au,         -0.0129 Debye
        Dipole field         -0.0000 Ry au
 
        Potential amp.        0.0007 Ry
        Total length         73.6798 bohr
 
 
     Adding external electric field

     Computed dipole along edir(3) : 
        Dipole               -0.0051 Ry au,         -0.0129 Debye
        Dipole field         -0.0000 Ry au
 
        Potential amp.        0.0007 Ry
        Total length         73.6798 bohr
 
 
     Magnetic moment per site:
     atom:    1    charge:    3.9830    magn:    0.4224    constr:    0.0000
     atom:    2    charge:    3.9834    magn:    0.4221    constr:    0.0000
     atom:    3    charge:    3.9833    magn:    0.4221    constr:    0.0000
     atom:    4    charge:    3.9743    magn:    0.4289    constr:    0.0000
     atom:    5    charge:    3.9743    magn:    0.4289    constr:    0.0000
     atom:    6    charge:    3.9746    magn:    0.4286    constr:    0.0000
     atom:    7    charge:    3.9709    magn:    0.4150    constr:    0.0000
     atom:    8    charge:    3.9713    magn:    0.4148    constr:    0.0000
     atom:    9    charge:    3.9712    magn:    0.4148    constr:    0.0000
     atom:   10    charge:    3.9737    magn:    0.4143    constr:    0.0000
     atom:   11    charge:    3.9737    magn:    0.4143    constr:    0.0000
     atom:   12    charge:    3.9740    magn:    0.4141    constr:    0.0000
     atom:   13    charge:    3.9729    magn:    0.4127    constr:    0.0000
     atom:   14    charge:    3.9732    magn:    0.4125    constr:    0.0000
     atom:   15    charge:    3.9732    magn:    0.4125    constr:    0.0000
     atom:   16    charge:    3.9706    magn:    0.4134    constr:    0.0000
     atom:   17    charge:    3.9706    magn:    0.4134    constr:    0.0000
     atom:   18    charge:    3.9709    magn:    0.4132    constr:    0.0000
     atom:   19    charge:    3.9704    magn:    0.4133    constr:    0.0000
     atom:   20    charge:    3.9707    magn:    0.4131    constr:    0.0000
     atom:   21    charge:    3.9707    magn:    0.4131    constr:    0.0000
     atom:   22    charge:    3.9726    magn:    0.4124    constr:    0.0000
     atom:   23    charge:    3.9727    magn:    0.4124    constr:    0.0000
     atom:   24    charge:    3.9729    magn:    0.4122    constr:    0.0000
     atom:   25    charge:    3.9718    magn:    0.4143    constr:    0.0000
     atom:   26    charge:    3.9722    magn:    0.4141    constr:    0.0000
     atom:   27    charge:    3.9722    magn:    0.4141    constr:    0.0000
     atom:   28    charge:    3.9689    magn:    0.4152    constr:    0.0000
     atom:   29    charge:    3.9690    magn:    0.4152    constr:    0.0000
     atom:   30    charge:    3.9693    magn:    0.4150    constr:    0.0000
     atom:   31    charge:    3.9737    magn:    0.4289    constr:    0.0000
     atom:   32    charge:    3.9741    magn:    0.4286    constr:    0.0000
     atom:   33    charge:    3.9741    magn:    0.4286    constr:    0.0000
     atom:   34    charge:    3.9813    magn:    0.4234    constr:    0.0000
     atom:   35    charge:    3.9813    magn:    0.4234    constr:    0.0000
     atom:   36    charge:    3.9817    magn:    0.4230    constr:    0.0000

     total cpu time spent up to now is     1975.6 secs

     total energy              =   -3622.78764075 Ry
     Harris-Foulkes estimate   =   -3622.79311711 Ry
     estimated scf accuracy    <       0.07469333 Ry

     total magnetization       =    24.02 Bohr mag/cell
     absolute magnetization    =    28.28 Bohr mag/cell

     iteration # 15     ecut=    44.10 Ry     beta=0.10
     Davidson diagonalization with overlap
     ethr =  2.07E-05,  avg # of iterations = 12.7

     negative rho (up, down):  8.816E-04 8.710E-04
 
     Adding external electric field

     Computed dipole along edir(3) : 
        Dipole               -0.0026 Ry au,         -0.0066 Debye
        Dipole field         -0.0000 Ry au
 
        Potential amp.        0.0004 Ry
        Total length         73.6798 bohr
 
 
     Adding external electric field

     Computed dipole along edir(3) : 
        Dipole               -0.0026 Ry au,         -0.0066 Debye
        Dipole field         -0.0000 Ry au
 
        Potential amp.        0.0004 Ry
        Total length         73.6798 bohr
 
 
     Magnetic moment per site:
     atom:    1    charge:    3.9846    magn:    0.4212    constr:    0.0000
     atom:    2    charge:    3.9840    magn:    0.4215    constr:    0.0000
     atom:    3    charge:    3.9841    magn:    0.4215    constr:    0.0000
     atom:    4    charge:    3.9753    magn:    0.4269    constr:    0.0000
     atom:    5    charge:    3.9753    magn:    0.4270    constr:    0.0000
     atom:    6    charge:    3.9748    magn:    0.4273    constr:    0.0000
     atom:    7    charge:    3.9717    magn:    0.4129    constr:    0.0000
     atom:    8    charge:    3.9712    magn:    0.4132    constr:    0.0000
     atom:    9    charge:    3.9712    magn:    0.4132    constr:    0.0000
     atom:   10    charge:    3.9736    magn:    0.4117    constr:    0.0000
     atom:   11    charge:    3.9735    magn:    0.4117    constr:    0.0000
     atom:   12    charge:    3.9731    magn:    0.4120    constr:    0.0000
     atom:   13    charge:    3.9723    magn:    0.4104    constr:    0.0000
     atom:   14    charge:    3.9717    magn:    0.4107    constr:    0.0000
     atom:   15    charge:    3.9717    magn:    0.4107    constr:    0.0000
     atom:   16    charge:    3.9708    magn:    0.4107    constr:    0.0000
     atom:   17    charge:    3.9708    magn:    0.4107    constr:    0.0000
     atom:   18    charge:    3.9703    magn:    0.4111    constr:    0.0000
     atom:   19    charge:    3.9704    magn:    0.4107    constr:    0.0000
     atom:   20    charge:    3.9698    magn:    0.4110    constr:    0.0000
     atom:   21    charge:    3.9699    magn:    0.4110    constr:    0.0000
     atom:   22    charge:    3.9730    magn:    0.4096    constr:    0.0000
     atom:   23    charge:    3.9729    magn:    0.4096    constr:    0.0000
     atom:   24    charge:    3.9724    magn:    0.4100    constr:    0.0000
     atom:   25    charge:    3.9716    magn:    0.4117    constr:    0.0000
     atom:   26    charge:    3.9710    magn:    0.4121    constr:    0.0000
     atom:   27    charge:    3.9710    magn:    0.4121    constr:    0.0000
     atom:   28    charge:    3.9698    magn:    0.4131    constr:    0.0000
     atom:   29    charge:    3.9698    magn:    0.4131    constr:    0.0000
     atom:   30    charge:    3.9693    magn:    0.4135    constr:    0.0000
     atom:   31    charge:    3.9752    magn:    0.4268    constr:    0.0000
     atom:   32    charge:    3.9745    magn:    0.4272    constr:    0.0000
     atom:   33    charge:    3.9745    magn:    0.4272    constr:    0.0000
     atom:   34    charge:    3.9827    magn:    0.4224    constr:    0.0000
     atom:   35    charge:    3.9827    magn:    0.4224    constr:    0.0000
     atom:   36    charge:    3.9821    magn:    0.4227    constr:    0.0000

     total cpu time spent up to now is     2160.1 secs

     total energy              =   -3622.78900609 Ry
     Harris-Foulkes estimate   =   -3622.79056932 Ry
     estimated scf accuracy    <       0.04521328 Ry

     total magnetization       =    23.64 Bohr mag/cell
     absolute magnetization    =    27.96 Bohr mag/cell

     iteration # 16     ecut=    44.10 Ry     beta=0.10
     Davidson diagonalization with overlap
     c_bands:  2 eigenvalues not converged
     ethr =  1.26E-05,  avg # of iterations =  3.0

     negative rho (up, down):  8.602E-04 8.230E-04
 
     Adding external electric field

     Computed dipole along edir(3) : 
        Dipole                0.0006 Ry au,          0.0015 Debye
        Dipole field          0.0000 Ry au
 
        Potential amp.       -0.0001 Ry
        Total length         73.6798 bohr
 
 
     Adding external electric field

     Computed dipole along edir(3) : 
        Dipole                0.0006 Ry au,          0.0015 Debye
        Dipole field          0.0000 Ry au
 
        Potential amp.       -0.0001 Ry
        Total length         73.6798 bohr
 
 
     Magnetic moment per site:
     atom:    1    charge:    3.9843    magn:    0.4215    constr:    0.0000
     atom:    2    charge:    3.9844    magn:    0.4213    constr:    0.0000
     atom:    3    charge:    3.9844    magn:    0.4214    constr:    0.0000
     atom:    4    charge:    3.9748    magn:    0.4267    constr:    0.0000
     atom:    5    charge:    3.9748    magn:    0.4267    constr:    0.0000
     atom:    6    charge:    3.9750    magn:    0.4266    constr:    0.0000
     atom:    7    charge:    3.9718    magn:    0.4122    constr:    0.0000
     atom:    8    charge:    3.9719    magn:    0.4121    constr:    0.0000
     atom:    9    charge:    3.9719    magn:    0.4121    constr:    0.0000
     atom:   10    charge:    3.9730    magn:    0.4107    constr:    0.0000
     atom:   11    charge:    3.9730    magn:    0.4107    constr:    0.0000
     atom:   12    charge:    3.9731    magn:    0.4106    constr:    0.0000
     atom:   13    charge:    3.9716    magn:    0.4095    constr:    0.0000
     atom:   14    charge:    3.9717    magn:    0.4094    constr:    0.0000
     atom:   15    charge:    3.9717    magn:    0.4094    constr:    0.0000
     atom:   16    charge:    3.9706    magn:    0.4096    constr:    0.0000
     atom:   17    charge:    3.9706    magn:    0.4096    constr:    0.0000
     atom:   18    charge:    3.9707    magn:    0.4095    constr:    0.0000
     atom:   19    charge:    3.9696    magn:    0.4098    constr:    0.0000
     atom:   20    charge:    3.9698    magn:    0.4097    constr:    0.0000
     atom:   21    charge:    3.9698    magn:    0.4097    constr:    0.0000
     atom:   22    charge:    3.9720    magn:    0.4088    constr:    0.0000
     atom:   23    charge:    3.9720    magn:    0.4088    constr:    0.0000
     atom:   24    charge:    3.9722    magn:    0.4087    constr:    0.0000
     atom:   25    charge:    3.9708    magn:    0.4109    constr:    0.0000
     atom:   26    charge:    3.9709    magn:    0.4108    constr:    0.0000
     atom:   27    charge:    3.9709    magn:    0.4108    constr:    0.0000
     atom:   28    charge:    3.9698    magn:    0.4124    constr:    0.0000
     atom:   29    charge:    3.9698    magn:    0.4124    constr:    0.0000
     atom:   30    charge:    3.9699    magn:    0.4124    constr:    0.0000
     atom:   31    charge:    3.9751    magn:    0.4264    constr:    0.0000
     atom:   32    charge:    3.9751    magn:    0.4263    constr:    0.0000
     atom:   33    charge:    3.9751    magn:    0.4263    constr:    0.0000
     atom:   34    charge:    3.9826    magn:    0.4225    constr:    0.0000
     atom:   35    charge:    3.9827    magn:    0.4225    constr:    0.0000
     atom:   36    charge:    3.9828    magn:    0.4224    constr:    0.0000

     total cpu time spent up to now is     2289.5 secs

     total energy              =   -3622.78936362 Ry
     Harris-Foulkes estimate   =   -3622.79064195 Ry
     estimated scf accuracy    <       0.03113333 Ry

     total magnetization       =    23.63 Bohr mag/cell
     absolute magnetization    =    27.92 Bohr mag/cell

     iteration # 17     ecut=    44.10 Ry     beta=0.10
     Davidson diagonalization with overlap
     ethr =  8.65E-06,  avg # of iterations =  2.8

     negative rho (up, down):  8.439E-04 7.865E-04
 
     Adding external electric field

     Computed dipole along edir(3) : 
        Dipole                0.0063 Ry au,          0.0160 Debye
        Dipole field          0.0000 Ry au
 
        Potential amp.       -0.0009 Ry
        Total length         73.6798 bohr
 
 
     Adding external electric field

     Computed dipole along edir(3) : 
        Dipole                0.0063 Ry au,          0.0160 Debye
        Dipole field          0.0000 Ry au
 
        Potential amp.       -0.0009 Ry
        Total length         73.6798 bohr
 
 
     Magnetic moment per site:
     atom:    1    charge:    3.9848    magn:    0.4198    constr:    0.0000
     atom:    2    charge:    3.9846    magn:    0.4198    constr:    0.0000
     atom:    3    charge:    3.9846    magn:    0.4198    constr:    0.0000
     atom:    4    charge:    3.9753    magn:    0.4242    constr:    0.0000
     atom:    5    charge:    3.9753    magn:    0.4242    constr:    0.0000
     atom:    6    charge:    3.9752    magn:    0.4243    constr:    0.0000
     atom:    7    charge:    3.9718    magn:    0.4097    constr:    0.0000
     atom:    8    charge:    3.9718    magn:    0.4097    constr:    0.0000
     atom:    9    charge:    3.9717    magn:    0.4097    constr:    0.0000
     atom:   10    charge:    3.9729    magn:    0.4077    constr:    0.0000
     atom:   11    charge:    3.9729    magn:    0.4077    constr:    0.0000
     atom:   12    charge:    3.9729    magn:    0.4077    constr:    0.0000
     atom:   13    charge:    3.9717    magn:    0.4066    constr:    0.0000
     atom:   14    charge:    3.9716    magn:    0.4066    constr:    0.0000
     atom:   15    charge:    3.9716    magn:    0.4066    constr:    0.0000
     atom:   16    charge:    3.9700    magn:    0.4070    constr:    0.0000
     atom:   17    charge:    3.9700    magn:    0.4070    constr:    0.0000
     atom:   18    charge:    3.9700    magn:    0.4070    constr:    0.0000
     atom:   19    charge:    3.9696    magn:    0.4070    constr:    0.0000
     atom:   20    charge:    3.9696    magn:    0.4070    constr:    0.0000
     atom:   21    charge:    3.9696    magn:    0.4070    constr:    0.0000
     atom:   22    charge:    3.9713    magn:    0.4063    constr:    0.0000
     atom:   23    charge:    3.9713    magn:    0.4063    constr:    0.0000
     atom:   24    charge:    3.9713    magn:    0.4063    constr:    0.0000
     atom:   25    charge:    3.9711    magn:    0.4076    constr:    0.0000
     atom:   26    charge:    3.9711    magn:    0.4076    constr:    0.0000
     atom:   27    charge:    3.9711    magn:    0.4076    constr:    0.0000
     atom:   28    charge:    3.9696    magn:    0.4101    constr:    0.0000
     atom:   29    charge:    3.9696    magn:    0.4101    constr:    0.0000
     atom:   30    charge:    3.9696    magn:    0.4101    constr:    0.0000
     atom:   31    charge:    3.9755    magn:    0.4239    constr:    0.0000
     atom:   32    charge:    3.9756    magn:    0.4238    constr:    0.0000
     atom:   33    charge:    3.9756    magn:    0.4238    constr:    0.0000
     atom:   34    charge:    3.9831    magn:    0.4207    constr:    0.0000
     atom:   35    charge:    3.9831    magn:    0.4207    constr:    0.0000
     atom:   36    charge:    3.9830    magn:    0.4207    constr:    0.0000

     total cpu time spent up to now is     2417.1 secs

     total energy              =   -3622.78999369 Ry
     Harris-Foulkes estimate   =   -3622.79027002 Ry
     estimated scf accuracy    <       0.00696352 Ry

     total magnetization       =    23.61 Bohr mag/cell
     absolute magnetization    =    27.88 Bohr mag/cell

     iteration # 18     ecut=    44.10 Ry     beta=0.10
     Davidson diagonalization with overlap
     ethr =  1.93E-06,  avg # of iterations =  6.9

     negative rho (up, down):  8.288E-04 7.531E-04
 
     Adding external electric field

     Computed dipole along edir(3) : 
        Dipole               -0.0035 Ry au,         -0.0088 Debye
        Dipole field         -0.0000 Ry au
 
        Potential amp.        0.0005 Ry
        Total length         73.6798 bohr
 
 
     Adding external electric field

     Computed dipole along edir(3) : 
        Dipole               -0.0035 Ry au,         -0.0088 Debye
        Dipole field         -0.0000 Ry au
 
        Potential amp.        0.0005 Ry
        Total length         73.6798 bohr
 
 
     Magnetic moment per site:
     atom:    1    charge:    3.9849    magn:    0.4195    constr:    0.0000
     atom:    2    charge:    3.9849    magn:    0.4195    constr:    0.0000
     atom:    3    charge:    3.9849    magn:    0.4195    constr:    0.0000
     atom:    4    charge:    3.9754    magn:    0.4237    constr:    0.0000
     atom:    5    charge:    3.9754    magn:    0.4237    constr:    0.0000
     atom:    6    charge:    3.9754    magn:    0.4237    constr:    0.0000
     atom:    7    charge:    3.9719    magn:    0.4091    constr:    0.0000
     atom:    8    charge:    3.9719    magn:    0.4091    constr:    0.0000
     atom:    9    charge:    3.9719    magn:    0.4091    constr:    0.0000
     atom:   10    charge:    3.9728    magn:    0.4069    constr:    0.0000
     atom:   11    charge:    3.9728    magn:    0.4069    constr:    0.0000
     atom:   12    charge:    3.9728    magn:    0.4069    constr:    0.0000
     atom:   13    charge:    3.9715    magn:    0.4059    constr:    0.0000
     atom:   14    charge:    3.9715    magn:    0.4059    constr:    0.0000
     atom:   15    charge:    3.9715    magn:    0.4059    constr:    0.0000
     atom:   16    charge:    3.9701    magn:    0.4061    constr:    0.0000
     atom:   17    charge:    3.9701    magn:    0.4061    constr:    0.0000
     atom:   18    charge:    3.9701    magn:    0.4061    constr:    0.0000
     atom:   19    charge:    3.9695    magn:    0.4062    constr:    0.0000
     atom:   20    charge:    3.9695    magn:    0.4062    constr:    0.0000
     atom:   21    charge:    3.9695    magn:    0.4062    constr:    0.0000
     atom:   22    charge:    3.9715    magn:    0.4054    constr:    0.0000
     atom:   23    charge:    3.9715    magn:    0.4054    constr:    0.0000
     atom:   24    charge:    3.9715    magn:    0.4054    constr:    0.0000
     atom:   25    charge:    3.9708    magn:    0.4070    constr:    0.0000
     atom:   26    charge:    3.9708    magn:    0.4070    constr:    0.0000
     atom:   27    charge:    3.9708    magn:    0.4070    constr:    0.0000
     atom:   28    charge:    3.9697    magn:    0.4094    constr:    0.0000
     atom:   29    charge:    3.9697    magn:    0.4094    constr:    0.0000
     atom:   30    charge:    3.9697    magn:    0.4094    constr:    0.0000
     atom:   31    charge:    3.9755    magn:    0.4235    constr:    0.0000
     atom:   32    charge:    3.9754    magn:    0.4235    constr:    0.0000
     atom:   33    charge:    3.9754    magn:    0.4235    constr:    0.0000
     atom:   34    charge:    3.9832    magn:    0.4205    constr:    0.0000
     atom:   35    charge:    3.9832    magn:    0.4205    constr:    0.0000
     atom:   36    charge:    3.9831    magn:    0.4204    constr:    0.0000

     total cpu time spent up to now is     2565.4 secs

     total energy              =   -3622.79006338 Ry
     Harris-Foulkes estimate   =   -3622.79032172 Ry
     estimated scf accuracy    <       0.02080652 Ry

     total magnetization       =    23.58 Bohr mag/cell
     absolute magnetization    =    27.82 Bohr mag/cell

     iteration # 19     ecut=    44.10 Ry     beta=0.10
     Davidson diagonalization with overlap
     ethr =  1.93E-06,  avg # of iterations =  1.0

[...]
     3.8425   4.1253   4.2065   4.2603   4.2991   4.3168   4.4118   4.6041
     4.7468   4.8430   5.0029   5.0461   5.1306   5.1544   5.1959   5.3232
     5.4734   5.4866   5.5541   5.6284   5.6748   5.7258   5.7829   5.8528
     5.8619   5.8747   5.8844   6.1995   6.2067   6.2684   6.3240   6.3638
     6.3990   6.4554   6.5050   6.5734   6.6263   6.6312   6.6864   6.6944
     6.8841   6.9709   7.0541   7.0552   7.0815   7.0931   7.2458   7.5227
     7.5270   7.6938   7.7550   7.8601   7.8889   7.9172   7.9338   8.0292
     8.0973   8.0974   8.2232   8.2886   8.4785   8.5318   8.5939   8.6134

 ------ SPIN DOWN ----------


          k = 0.0000 0.0000 0.0000 ( 62137 PWs)   bands (ev):

    -9.1663  -7.9363  -6.6353  -6.6353  -6.2978  -5.7336  -5.6862  -5.6529
    -5.6528  -4.9059  -4.8443  -4.8071  -4.5905  -4.5903  -4.5556  -4.5413
    -4.5413  -4.4371  -4.4371  -4.2127  -4.1640  -4.1638  -4.1538  -4.1538
    -4.1201  -3.9935  -3.8746  -3.8733  -3.8731  -3.8280  -3.8279  -3.7972
    -3.7970  -3.7379  -3.7377  -3.5770  -3.5769  -3.5473  -3.5104  -3.5103
    -3.4485  -3.4485  -3.3320  -3.3319  -3.2578  -3.2577  -3.0915  -3.0914
    -3.0587  -3.0429  -3.0429  -3.0097  -3.0097  -2.9473  -2.9376  -2.9374
    -2.8935  -2.8820  -2.8820  -2.8313  -2.7858  -2.7347  -2.7346  -2.7025
    -2.7024  -2.6716  -2.6412  -2.6412  -2.5757  -2.5361  -2.5304  -2.5303
    -2.4867  -2.4867  -2.4800  -2.3721  -2.3719  -2.3509  -2.3508  -2.3430
    -2.3225  -2.2855  -2.2683  -2.2682  -2.2463  -2.2462  -2.2081  -2.1805
    -2.1748  -2.1368  -2.1238  -2.1076  -2.1065  -2.1065  -2.0596  -2.0402
    -2.0401  -2.0147  -2.0146  -2.0090  -1.9877  -1.9731  -1.9730  -1.9709
    -1.9244  -1.8999  -1.8998  -1.8766  -1.8765  -1.8680  -1.8603  -1.7711
    -1.7710  -1.7686  -1.6311  -1.6309  -1.6033  -1.6032  -1.5816  -1.5678
    -1.5677  -1.5506  -1.5346  -1.5346  -1.4873  -1.3994  -1.3841  -1.3713
    -1.3577  -1.3577  -1.3513  -1.3512  -1.2666  -1.2665  -1.2618  -1.2318
    -1.1426  -1.1425  -1.1397  -1.1093  -1.1027  -1.0871  -1.0870  -1.0689
    -1.0688  -1.0645  -0.9990  -0.9989  -0.9896  -0.9558  -0.9557  -0.9269
    -0.9269  -0.9241  -0.9119  -0.9118  -0.8853  -0.8750  -0.8750  -0.8622
    -0.8622  -0.8196  -0.8195  -0.7925  -0.7496  -0.7495  -0.7173  -0.7033
    -0.7032  -0.6871  -0.6440  -0.6423  -0.6423  -0.6342  -0.6342  -0.5949
    -0.5949  -0.5782  -0.5781  -0.5777  -0.5228  -0.5007  -0.5007  -0.5000
    -0.4889  -0.4888  -0.4627  -0.4428  -0.3474  -0.3030  -0.2217  -0.1681
    -0.0658  -0.0657   0.4021   0.7796   0.8233   0.8357   0.8358   0.9434
     0.9434   1.2262   1.2262   1.4919   1.4920   1.6430   1.6432   1.7861
     1.9498   2.5254   2.7517   2.7518   2.9734   2.9734   3.1051   3.1053
     3.1712   3.4532   3.5435   3.7068   3.9673   4.1307   4.1308   4.2396
     4.6984   4.8586   4.8587   4.9742   4.9743   5.1110   5.2586   5.2586
     5.6527   6.0001   6.0001   6.0889   6.0891   6.1983   6.1983   6.2146
     6.2147   6.2278   6.2956   6.6144   6.6148   6.6149   6.6611   6.6612
     6.8199   6.8200   7.0225   7.2846   7.3017   7.3018   7.3361   7.3653
     7.3654   7.4245   7.4297   7.5368   7.5589   7.5589   7.5948   7.6258
     7.7327   7.7589   7.7589   8.0537   8.1215   8.1668   8.2252   8.2252
     8.3716   8.5579   8.5580   8.6823   8.8000   8.8001   8.8965   8.9324

          k = 0.0000 0.0442 0.0000 ( 62100 PWs)   bands (ev):

    -8.8590  -7.9723  -7.6421  -6.8124  -6.0255  -5.4987  -5.4553  -5.3044
    -5.1720  -4.9298  -4.8977  -4.7089  -4.6429  -4.6287  -4.6119  -4.5723
    -4.5541  -4.3850  -4.3046  -4.2994  -4.1957  -4.1501  -4.1338  -4.0530
    -4.0427  -4.0376  -3.9866  -3.9842  -3.9414  -3.9354  -3.9162  -3.8718
    -3.7964  -3.7647  -3.7269  -3.6789  -3.6072  -3.5953  -3.5340  -3.4970
    -3.4722  -3.3887  -3.3577  -3.3138  -3.2806  -3.2393  -3.1152  -3.1009
    -3.0694  -3.0648  -3.0153  -3.0011  -2.9935  -2.9758  -2.9698  -2.9349
    -2.8836  -2.8833  -2.8826  -2.8719  -2.7908  -2.7571  -2.7410  -2.6950
    -2.6825  -2.6815  -2.6727  -2.6527  -2.6350  -2.5466  -2.5459  -2.5370
    -2.5146  -2.5128  -2.4943  -2.4526  -2.4440  -2.4361  -2.3856  -2.3760
    -2.3450  -2.3192  -2.3096  -2.2654  -2.2596  -2.2501  -2.2225  -2.2070
    -2.1747  -2.1654  -2.1647  -2.1406  -2.1272  -2.1059  -2.0751  -2.0732
    -2.0598  -2.0338  -2.0285  -2.0189  -1.9516  -1.9334  -1.9326  -1.9125
    -1.8981  -1.8879  -1.8503  -1.8297  -1.8102  -1.8025  -1.7852  -1.7844
    -1.7562  -1.7489  -1.7016  -1.6789  -1.6641  -1.6408  -1.6276  -1.6027
    -1.5887  -1.5810  -1.5504  -1.5393  -1.5189  -1.5131  -1.5041  -1.4338
    -1.4154  -1.4091  -1.3610  -1.3498  -1.3449  -1.3320  -1.3015  -1.2889
    -1.2499  -1.2488  -1.2200  -1.2152  -1.1579  -1.1451  -1.1362  -1.1136
    -1.1030  -1.0994  -1.0910  -1.0500  -1.0061  -1.0061  -1.0020  -0.9567
    -0.9544  -0.9001  -0.8936  -0.8926  -0.8585  -0.8499  -0.8292  -0.8280
    -0.7885  -0.7806  -0.7731  -0.6769  -0.6697  -0.6517  -0.6457  -0.6347
    -0.6256  -0.6241  -0.6178  -0.6118  -0.6043  -0.5921  -0.5860  -0.5742
    -0.5622  -0.5416  -0.5147  -0.4886  -0.4839  -0.4468  -0.4370  -0.4260
    -0.3947  -0.3402  -0.3332  -0.3144  -0.1715   0.1210   0.1505   0.1700
     0.2063   0.2136   0.2467   0.4382   0.7759   0.7932   0.8920   1.0139
     1.1708   1.2380   1.7209   1.8210   1.8826   1.9252   1.9441   2.0648
     2.0685   2.3462   2.3512   2.3867   2.4646   2.4855   2.8235   3.3412
     3.4372   3.5465   3.6172   3.6218   3.6624   3.7605   3.8429   4.0200
     4.2703   4.5268   4.5322   4.6955   4.7353   4.8362   4.9968   5.0003
     5.0960   5.1708   5.3941   5.4097   5.8819   5.9293   5.9544   6.0484
     6.2351   6.3287   6.4985   6.5438   6.7090   6.7188   6.8770   6.9002
     6.9961   7.2856   7.2914   7.2958   7.5761   7.6177   7.6748   7.6995
     7.7181   7.7244   7.8190   7.8676   7.8870   7.8924   7.9101   8.0152
     8.0879   8.1874   8.2347   8.2555   8.3230   8.3453   8.4091   8.4441
     8.4495   8.4693   8.5201   8.5896   8.6445   8.6790   8.7246   8.7394

          k = 0.0541 0.0000 0.0000 ( 61980 PWs)   bands (ev):

    -8.7095  -7.5738  -7.3462  -6.3871  -6.3015  -6.3015  -5.8608  -5.4820
    -5.4819  -5.3586  -5.3586  -5.1287  -4.8788  -4.8606  -4.8606  -4.7325
    -4.4483  -4.3656  -4.3654  -4.1881  -4.1879  -4.0987  -4.0863  -4.0862
    -4.0498  -3.8083  -3.7287  -3.7286  -3.7035  -3.7034  -3.6849  -3.6849
    -3.6819  -3.6577  -3.6576  -3.5608  -3.5608  -3.5116  -3.5115  -3.4680
    -3.4567  -3.4566  -3.3927  -3.2984  -3.2982  -3.2570  -3.2569  -3.1456
    -3.1456  -3.1140  -3.0439  -3.0439  -2.9756  -2.9755  -2.9171  -2.9169
    -2.8676  -2.8374  -2.8374  -2.8159  -2.8159  -2.7433  -2.7036  -2.7035
    -2.6920  -2.6138  -2.6137  -2.5445  -2.5445  -2.5203  -2.4850  -2.4358
    -2.4357  -2.4311  -2.3837  -2.3753  -2.3753  -2.3644  -2.2944  -2.2943
    -2.2475  -2.2421  -2.2421  -2.2387  -2.2145  -2.2145  -2.2109  -2.1818
    -2.1817  -2.1635  -2.1355  -2.1317  -2.1316  -2.0760  -2.0740  -2.0578
    -2.0578  -2.0379  -2.0307  -2.0307  -1.9947  -1.9945  -1.9315  -1.9234
    -1.9233  -1.9209  -1.9030  -1.8432  -1.8431  -1.7372  -1.7320  -1.7033
    -1.7032  -1.6880  -1.6880  -1.6601  -1.6181  -1.5001  -1.4992  -1.4923
    -1.4923  -1.4636  -1.4636  -1.4429  -1.4428  -1.4013  -1.3643  -1.3642
    -1.3214  -1.3186  -1.3185  -1.3065  -1.2926  -1.2926  -1.2758  -1.1984
    -1.1983  -1.1809  -1.1310  -1.1310  -1.1282  -1.1012  -1.0702  -1.0507
    -1.0507  -1.0307  -1.0260  -1.0259  -0.9977  -0.9976  -0.9722  -0.9605
    -0.9604  -0.8999  -0.8724  -0.8724  -0.8353  -0.8329  -0.8329  -0.8147
    -0.7980  -0.7980  -0.7925  -0.7898  -0.7897  -0.7607  -0.7565  -0.7479
    -0.7479  -0.6970  -0.6970  -0.6815  -0.6604  -0.6604  -0.6268  -0.6213
    -0.6213  -0.5346  -0.5346  -0.5234  -0.5234  -0.5164  -0.4833  -0.4784
    -0.4709  -0.4709  -0.4543  -0.4288  -0.4287  -0.3869  -0.3625  -0.3625
    -0.3575  -0.1861  -0.1860  -0.1254   0.1067   0.1067   0.2314   0.3301
     0.6578   0.6578   1.3665   1.5926   1.7481   1.7482   2.5958   2.5959
     2.8809   3.3410   3.4424   3.4425   3.6550   3.6550   3.8398   3.9723
     4.0340   4.2404   4.2406   4.3322   4.4261   4.4262   4.5687   4.8057
     5.0207   5.0208   5.0651   5.2145   5.2696   5.3512   5.4044   5.4045
     5.5272   5.6037   5.7583   5.7584   5.9406   6.0027   6.0378   6.1896
     6.1898   6.3655   6.4352   6.4352   6.5682   6.5683   6.6158   6.6760
     6.6761   6.6979   6.6979   6.7190   6.8058   6.8941   6.9546   6.9546
     7.1444   7.1444   7.2095   7.2095   7.2716   7.2716   7.5461   7.5902
     7.5902   7.6570   7.6572   7.6663   7.8049   7.8091   7.8091   7.8630
     7.9331   7.9332   7.9731   7.9732   8.0511   8.0511   8.0704   8.0704

          k = 0.0541 0.0442 0.0000 ( 62079 PWs)   bands (ev):

    -8.4100  -7.5541  -7.2909  -7.0712  -6.5082  -6.3178  -6.1338  -5.6056
    -5.4908  -5.0649  -4.9613  -4.9115  -4.7272  -4.6561  -4.6544  -4.5944
    -4.5323  -4.4379  -4.3421  -4.2592  -4.2225  -4.1185  -4.1164  -4.0694
    -3.9726  -3.9461  -3.9424  -3.8875  -3.8854  -3.8664  -3.7697  -3.7693
    -3.7380  -3.7078  -3.5753  -3.5230  -3.4955  -3.4579  -3.4557  -3.4171
    -3.4116  -3.3916  -3.3295  -3.2846  -3.2643  -3.2590  -3.2459  -3.1843
    -3.1442  -3.1009  -3.0729  -3.0404  -3.0234  -2.9863  -2.9372  -2.9117
    -2.8823  -2.8804  -2.8208  -2.8076  -2.7491  -2.7352  -2.6925  -2.6770
    -2.6759  -2.6234  -2.6114  -2.6082  -2.5829  -2.5319  -2.5317  -2.5219
    -2.4679  -2.4441  -2.4414  -2.4037  -2.3935  -2.3836  -2.3585  -2.3558
    -2.3477  -2.3200  -2.3106  -2.2974  -2.2883  -2.2373  -2.2126  -2.2064
    -2.1611  -2.1601  -2.1393  -2.1261  -2.1133  -2.0879  -2.0666  -2.0454
    -2.0340  -2.0133  -1.9829  -1.9807  -1.9594  -1.9511  -1.9258  -1.8865
    -1.8729  -1.8569  -1.8098  -1.8040  -1.7710  -1.7521  -1.7424  -1.7244
    -1.7184  -1.7136  -1.6860  -1.6803  -1.6396  -1.6085  -1.5979  -1.5964
    -1.5402  -1.5273  -1.5213  -1.5132  -1.5105  -1.4680  -1.4475  -1.4322
    -1.4235  -1.3752  -1.3570  -1.3310  -1.3122  -1.3092  -1.2940  -1.2230
    -1.2225  -1.2046  -1.1933  -1.1886  -1.1488  -1.1261  -1.1108  -1.0842
    -1.0788  -1.0649  -1.0513  -1.0332  -1.0052  -0.9906  -0.9765  -0.9608
    -0.9580  -0.9311  -0.8981  -0.8874  -0.8703  -0.8466  -0.8443  -0.8419
    -0.8281  -0.7822  -0.7820  -0.7566  -0.7476  -0.7187  -0.6868  -0.6818
    -0.6452  -0.6375  -0.6119  -0.5923  -0.5628  -0.5509  -0.5389  -0.5314
    -0.5289  -0.5214  -0.5146  -0.5112  -0.4965  -0.4675  -0.4496  -0.4440
    -0.4409  -0.3934  -0.3864  -0.3463  -0.3292  -0.3258  -0.3154  -0.1453
    -0.0794   0.0421   0.2291   0.4804   0.5414   0.6103   0.7339   0.8008
     0.8981   0.9475   1.4109   1.5237   1.8651   1.9976   2.0613   2.0699
     2.2078   2.3422   2.7853   3.0175   3.1320   3.2781   3.3057   3.6737
     4.0018   4.1336   4.2735   4.3278   4.3329   4.4965   4.5825   4.6293
     4.8645   4.9944   5.0109   5.0906   5.1711   5.2053   5.3488   5.3634
     5.5074   5.5143   5.5693   5.6473   5.7432   5.8129   5.8889   5.9148
     5.9376   6.0601   6.1337   6.2317   6.2428   6.3090   6.3929   6.4551
     6.5243   6.5686   6.5699   6.6580   6.6597   6.7196   6.7442   6.8574
     6.9388   7.0804   7.0860   7.1229   7.1442   7.1451   7.3902   7.5492
     7.6292   7.7264   7.8301   7.8947   7.9370   7.9446   8.0526   8.0754
     8.1392   8.2126   8.3355   8.3356   8.5334   8.6028   8.6661   8.7036

          k = 0.0541-0.0442 0.0000 ( 62079 PWs)   bands (ev):

    -8.4100  -7.5541  -7.2909  -7.0712  -6.5082  -6.3178  -6.1338  -5.6056
    -5.4908  -5.0649  -4.9613  -4.9115  -4.7272  -4.6561  -4.6544  -4.5944
    -4.5323  -4.4379  -4.3421  -4.2592  -4.2225  -4.1185  -4.1164  -4.0694
    -3.9726  -3.9461  -3.9424  -3.8875  -3.8854  -3.8664  -3.7697  -3.7693
    -3.7380  -3.7078  -3.5753  -3.5230  -3.4955  -3.4579  -3.4557  -3.4171
    -3.4116  -3.3916  -3.3295  -3.2846  -3.2643  -3.2590  -3.2459  -3.1843
    -3.1442  -3.1009  -3.0729  -3.0404  -3.0234  -2.9863  -2.9372  -2.9117
    -2.8823  -2.8804  -2.8208  -2.8076  -2.7491  -2.7352  -2.6925  -2.6770
    -2.6759  -2.6234  -2.6114  -2.6082  -2.5829  -2.5319  -2.5317  -2.5219
    -2.4679  -2.4441  -2.4414  -2.4037  -2.3935  -2.3836  -2.3585  -2.3558
    -2.3477  -2.3200  -2.3106  -2.2974  -2.2883  -2.2373  -2.2126  -2.2064
    -2.1611  -2.1601  -2.1393  -2.1261  -2.1133  -2.0879  -2.0666  -2.0454
    -2.0340  -2.0133  -1.9829  -1.9807  -1.9594  -1.9511  -1.9258  -1.8865
    -1.8729  -1.8569  -1.8098  -1.8040  -1.7710  -1.7521  -1.7424  -1.7244
    -1.7184  -1.7136  -1.6860  -1.6803  -1.6396  -1.6085  -1.5979  -1.5964
    -1.5402  -1.5273  -1.5213  -1.5132  -1.5105  -1.4680  -1.4475  -1.4322
    -1.4235  -1.3752  -1.3570  -1.3310  -1.3122  -1.3092  -1.2940  -1.2230
    -1.2225  -1.2046  -1.1933  -1.1886  -1.1488  -1.1261  -1.1108  -1.0842
    -1.0788  -1.0649  -1.0513  -1.0332  -1.0052  -0.9906  -0.9765  -0.9608
    -0.9580  -0.9311  -0.8981  -0.8874  -0.8703  -0.8466  -0.8443  -0.8419
    -0.8281  -0.7822  -0.7820  -0.7566  -0.7476  -0.7187  -0.6868  -0.6818
    -0.6452  -0.6375  -0.6119  -0.5923  -0.5628  -0.5509  -0.5389  -0.5314
    -0.5289  -0.5214  -0.5146  -0.5112  -0.4965  -0.4675  -0.4496  -0.4440
    -0.4409  -0.3934  -0.3864  -0.3463  -0.3292  -0.3258  -0.3154  -0.1453
    -0.0794   0.0421   0.2291   0.4804   0.5414   0.6103   0.7339   0.8008
     0.8981   0.9475   1.4109   1.5237   1.8651   1.9976   2.0613   2.0699
     2.2078   2.3422   2.7853   3.0175   3.1320   3.2781   3.3057   3.6737
     4.0018   4.1336   4.2735   4.3278   4.3329   4.4965   4.5825   4.6293
     4.8645   4.9944   5.0109   5.0906   5.1711   5.2053   5.3488   5.3634
     5.5074   5.5143   5.5693   5.6473   5.7432   5.8129   5.8889   5.9148
     5.9376   6.0601   6.1337   6.2317   6.2428   6.3090   6.3929   6.4551
     6.5243   6.5686   6.5699   6.6580   6.6597   6.7196   6.7442   6.8574
     6.9388   7.0804   7.0860   7.1229   7.1442   7.1451   7.3902   7.5492
     7.6292   7.7264   7.8301   7.8947   7.9370   7.9446   8.0526   8.0754
     8.1392   8.2126   8.3355   8.3356   8.5334   8.6028   8.6661   8.7036

     the Fermi energy is    -0.6806 ev

!    total energy              =   -3622.80136066 Ry
     Harris-Foulkes estimate   =   -3622.80136098 Ry
     estimated scf accuracy    <       0.00000071 Ry

     The total energy is the sum of the following terms:

     one-electron contribution =  -76027.03321722 Ry
     hartree contribution      =   38374.65364515 Ry
     xc contribution           =   -1505.45732700 Ry
     ewald contribution        =   35535.19738906 Ry
     electric field correction =       0.00000063 Ry
     smearing contrib. (-TS)   =      -0.16185128 Ry

     total magnetization       =    23.51 Bohr mag/cell
     absolute magnetization    =    27.16 Bohr mag/cell

     convergence has been achieved in  22 iterations

     Forces acting on atoms (Ry/au):


     negative rho (up, down):  7.635E-04 6.147E-04
     atom    1 type  1   force =    -0.00014510    0.00001384   -0.00058486
     atom    2 type  1   force =    -0.00012543    0.00017841   -0.00065008
     atom    3 type  1   force =    -0.00011401   -0.00019207   -0.00053715
     atom    4 type  1   force =    -0.00047945   -0.00017279   -0.00157849
     atom    5 type  1   force =    -0.00041339    0.00019382   -0.00161381
     atom    6 type  1   force =    -0.00045699   -0.00002045   -0.00165109
     atom    7 type  1   force =    -0.00094735   -0.00001346   -0.00038042
     atom    8 type  1   force =    -0.00094088    0.00023039   -0.00042910
     atom    9 type  1   force =    -0.00089859   -0.00021684   -0.00042210
     atom   10 type  1   force =    -0.00039480   -0.00016475   -0.00056303
     atom   11 type  1   force =    -0.00044346    0.00022947   -0.00043238
     atom   12 type  1   force =    -0.00040334   -0.00006509   -0.00066131
     atom   13 type  1   force =     0.00072522    0.00000396    0.00038729
     atom   14 type  1   force =     0.00073451    0.00025575    0.00029466
     atom   15 type  1   force =     0.00072972   -0.00026047    0.00021897
     atom   16 type  1   force =     0.00117223   -0.00029858   -0.00008869
     atom   17 type  1   force =     0.00123627    0.00027278   -0.00006354
     atom   18 type  1   force =     0.00115090    0.00002514   -0.00017348
     atom   19 type  1   force =     0.00080457   -0.00004702   -0.00071076
     atom   20 type  1   force =     0.00080716    0.00030889   -0.00068416
     atom   21 type  1   force =     0.00081037   -0.00026191   -0.00069109
     atom   22 type  1   force =     0.00337079   -0.00029295   -0.00065952
     atom   23 type  1   force =     0.00336609    0.00025680   -0.00065497
     atom   24 type  1   force =     0.00336732    0.00003624   -0.00062459
     atom   25 type  1   force =    -0.00288618   -0.00003608   -0.00944815
     atom   26 type  1   force =    -0.00288361    0.00029317   -0.00941717
     atom   27 type  1   force =    -0.00288468   -0.00025693   -0.00941686
     atom   28 type  1   force =    -0.00191201   -0.00024925   -0.01058923
     atom   29 type  1   force =    -0.00191551    0.00021996   -0.01059555
     atom   30 type  1   force =    -0.00189813    0.00002944   -0.01052298
     atom   31 type  1   force =    -0.00555228   -0.00002808    0.00295580
     atom   32 type  1   force =    -0.00558642    0.00023552    0.00305155
     atom   33 type  1   force =    -0.00559249   -0.00020760    0.00306181
     atom   34 type  1   force =     0.00619863   -0.00020728    0.02125957
     atom   35 type  1   force =     0.00619812    0.00018171    0.02124535
     atom   36 type  1   force =     0.00620222    0.00002631    0.02136958

     Total force =     0.047896     Total SCF correction =     0.003374
 !ASE

     Writing output data file calc.save
 
     init_run     :     49.58s CPU     56.99s WALL (       1 calls)
     electrons    :  13360.57s CPU  15258.73s WALL (       4 calls)
     update_pot   :      9.17s CPU      9.83s WALL (       3 calls)
     forces       :    335.19s CPU    346.44s WALL (       4 calls)

     Called by init_run:
     wfcinit      :     28.56s CPU     34.58s WALL (       1 calls)
     potinit      :      1.26s CPU      1.47s WALL (       1 calls)

     Called by electrons:
     c_bands      :   7895.02s CPU   9296.13s WALL (     116 calls)
     sum_band     :   3490.91s CPU   3866.06s WALL (     116 calls)
     v_of_rho     :     71.81s CPU     82.93s WALL (     120 calls)
     newd         :   1945.04s CPU   2054.67s WALL (     120 calls)
     mix_rho      :     16.75s CPU     19.67s WALL (     116 calls)

     Called by c_bands:
     init_us_2    :     46.68s CPU     50.65s WALL (    2370 calls)
     cegterg      :   7621.80s CPU   9010.59s WALL (    1160 calls)

     Called by *egterg:
     h_psi        :   4124.62s CPU   5232.95s WALL (    3543 calls)
     s_psi        :    692.28s CPU    720.94s WALL (    3543 calls)
     g_psi        :     17.52s CPU     17.84s WALL (    2373 calls)
     cdiaghg      :    964.35s CPU    982.15s WALL (    3503 calls)

     Called by h_psi:
     add_vuspsi   :    696.31s CPU    724.72s WALL (    3543 calls)

     General routines
     calbec       :   1050.99s CPU   1091.82s WALL (    4743 calls)
     fft          :     74.56s CPU     86.30s WALL (    3756 calls)
     ffts         :      1.04s CPU      1.39s WALL (     472 calls)
     fftw         :   1988.50s CPU   3274.49s WALL ( 1720530 calls)
     interpolate  :      9.48s CPU     12.79s WALL (     472 calls)
     davcio       :      0.05s CPU      1.14s WALL (      10 calls)
 
     Parallel routines
     fft_scatter  :   1164.88s CPU   1898.57s WALL ( 1724758 calls)
 
     PWSCF        :     3h50m CPU        4h22m WALL

 
   This run was terminated on:  13:15:33  23Mar2018            

=------------------------------------------------------------------------------=
   JOB DONE.
=------------------------------------------------------------------------------=
