  python dir          : /home/vossj/suncat/lib/python2.7/site-packages/espresso
  espresso dir        : /home/vossj/suncat/esdld/espresso-dynpy-beef/bin
  pseudo dir          : /home/alatimer/bin/psp/esp_psp_w_gbrvRu/
  ase-espresso py git : ffa2778-git



     Program PWSCF v.5.1rc2 (svn rev. ) starts on 20Feb2018 at 11:43:11 

     This program is part of the open-source Quantum ESPRESSO suite
     for quantum simulation of materials; please cite
         "P. Giannozzi et al., J. Phys.:Condens. Matter 21 395502 (2009);
          URL http://www.quantum-espresso.org", 
     in publications or presentations arising from this work. More details at
     http://www.quantum-espresso.org/quote

     Parallel version (MPI), running on    16 processors
     R & G space division:  proc/nbgrp/npool/nimage =      16
     Reading input from pw.inp
     Message from routine read_cards :
     DEPRECATED: no units specified in CELL_PARAMETERS card

     Current dimensions of program PWSCF are:
     Max number of different atomic species (ntypx) = 10
     Max number of k-points (npk) =  40000
     Max angular momentum in pseudopotentials (lmaxx) =  3
     Presently no symmetry can be used with electric field


     IMPORTANT: XC functional enforced from input :
     Exchange-correlation      = RPBE ( 1  4 28  4 0)
     Any further DFT definition will be discarded
     Please, verify this is what you really want

               file Ni.UPF: wavefunction(s)  3D renormalized

     Subspace diagonalization in iterative solution of the eigenvalue problem:
     a serial algorithm will be used

     Found symmetry operation: I + (  0.0000  0.3333  0.0000)
     This is a supercell, fractional translations are disabled
 
     Parallelization info
     --------------------
     sticks:   dense  smooth     PW     G-vecs:    dense   smooth      PW
     Min         630     252     68                99782    25206    3526
     Max         631     253     69                99791    25249    3527
     Sum       10093    4041   1091              1596589   403729   56419
 
     Generating pointlists ...
     new r_m :   0.4125 (alat units)  0.7795 (a.u.) for type    1


     bravais-lattice index     =            0
     lattice parameter (alat)  =       1.8897  a.u.
     unit-cell volume          =   10207.8337 (a.u.)^3
     number of atoms/cell      =           36
     number of atomic types    =            1
     number of electrons       =       360.00
     number of Kohn-Sham states=          280
     kinetic-energy cutoff     =      44.0992  Ry
     charge density cutoff     =     440.9919  Ry
     convergence threshold     =      7.3E-07
     mixing beta               =       0.1000
     number of iterations used =           10  plain     mixing
     Exchange-correlation      = RPBE ( 1  4 28  4 0)
     nstep                     =           50


     celldm(1)=   1.889726  celldm(2)=   0.000000  celldm(3)=   0.000000
     celldm(4)=   0.000000  celldm(5)=   0.000000  celldm(6)=   0.000000

     crystal axes: (cart. coord. in units of alat)
               a(1) = (  13.073539   0.000000   0.000000 )  
               a(2) = (  -4.357846   6.162925   0.000000 )  
               a(3) = (   0.000000   0.000000  18.774005 )  

     reciprocal axes: (cart. coord. in units 2 pi/alat)
               b(1) = (  0.076490  0.054087  0.000000 )  
               b(2) = (  0.000000  0.162261  0.000000 )  
               b(3) = (  0.000000  0.000000  0.053265 )  


     PseudoPot. # 1 for Ni read from file:
     /home/alatimer/bin/psp/esp_psp_w_gbrvRu/Ni.UPF
     MD5 check sum: 8b2449ee0060d9c33484ccd47bb60870
     Pseudo is Ultrasoft + core correction, Zval = 10.0
     Generated using "atomic" code by A. Dal Corso  v.5.0.2 svn rev. 9415
     Using radial grid of 1195 points,  6 beta functions with: 
                l(1) =   0
                l(2) =   0
                l(3) =   1
                l(4) =   1
                l(5) =   2
                l(6) =   2
     Q(r) pseudized with 0 coefficients 


     atomic species   valence    mass     pseudopotential
        Ni1           10.00    58.69340     Ni( 1.00)

     Starting magnetic structure 
     atomic species   magnetization
        Ni1          0.300

     No symmetry found



   Cartesian axes

     site n.     atom                  positions (alat units)
         1           Ni1 tau(   1) = (   0.0000000   0.0000000   7.5000000  )
         2           Ni1 tau(   2) = (   2.1789231   0.0000000   8.7580018  )
         3           Ni1 tau(   3) = (   0.0000000   0.0000000  10.0160037  )
         4           Ni1 tau(   4) = (   2.1789231   0.0000000  11.2740055  )
         5           Ni1 tau(   5) = (  -1.4526154   2.0543084   7.5000000  )
         6           Ni1 tau(   6) = (   0.7263077   2.0543084   8.7580018  )
         7           Ni1 tau(   7) = (  -1.4526154   2.0543084  10.0160037  )
         8           Ni1 tau(   8) = (   0.7263077   2.0543084  11.2740055  )
         9           Ni1 tau(   9) = (  -2.9052308   4.1086168   7.5000000  )
        10           Ni1 tau(  10) = (  -0.7263077   4.1086168   8.7580018  )
        11           Ni1 tau(  11) = (  -2.9052308   4.1086168  10.0160037  )
        12           Ni1 tau(  12) = (  -0.7263077   4.1086168  11.2740055  )
        13           Ni1 tau(  13) = (   4.3578462   0.0000000   7.5000000  )
        14           Ni1 tau(  14) = (   6.5367693   0.0000000   8.7580018  )
        15           Ni1 tau(  15) = (   4.3578462   0.0000000  10.0160037  )
        16           Ni1 tau(  16) = (   6.5367693   0.0000000  11.2740055  )
        17           Ni1 tau(  17) = (   2.9052308   2.0543084   7.5000000  )
        18           Ni1 tau(  18) = (   5.0841539   2.0543084   8.7580018  )
        19           Ni1 tau(  19) = (   2.9052308   2.0543084  10.0160037  )
        20           Ni1 tau(  20) = (   5.0841539   2.0543084  11.2740055  )
        21           Ni1 tau(  21) = (   1.4526154   4.1086168   7.5000000  )
        22           Ni1 tau(  22) = (   3.6315385   4.1086168   8.7580018  )
        23           Ni1 tau(  23) = (   1.4526154   4.1086168  10.0160037  )
        24           Ni1 tau(  24) = (   3.6315385   4.1086168  11.2740055  )
        25           Ni1 tau(  25) = (   8.7156924   0.0000000   7.5000000  )
        26           Ni1 tau(  26) = (  10.8946154   0.0000000   8.7580018  )
        27           Ni1 tau(  27) = (   8.7156924   0.0000000  10.0160037  )
        28           Ni1 tau(  28) = (  10.8946154   0.0000000  11.2740055  )
        29           Ni1 tau(  29) = (   7.2630770   2.0543084   7.5000000  )
        30           Ni1 tau(  30) = (   9.4420001   2.0543084   8.7580018  )
        31           Ni1 tau(  31) = (   7.2630770   2.0543084  10.0160037  )
        32           Ni1 tau(  32) = (   9.4420001   2.0543084  11.2740055  )
        33           Ni1 tau(  33) = (   5.8104616   4.1086168   7.5000000  )
        34           Ni1 tau(  34) = (   7.9893847   4.1086168   8.7580018  )
        35           Ni1 tau(  35) = (   5.8104616   4.1086168  10.0160037  )
        36           Ni1 tau(  36) = (   7.9893847   4.1086168  11.2740055  )

     number of k points=    10  Fermi-Dirac smearing, width (Ry)=  0.0073
                       cart. coord. in units 2pi/alat
        k(    1) = (   0.0000000   0.0000000   0.0000000), wk =   0.1111111
        k(    2) = (   0.0000000   0.0540869   0.0000000), wk =   0.2222222
        k(    3) = (   0.0254968   0.0180290   0.0000000), wk =   0.2222222
        k(    4) = (   0.0254968   0.0721158   0.0000000), wk =   0.2222222
        k(    5) = (   0.0254968  -0.0360579   0.0000000), wk =   0.2222222
        k(    6) = (   0.0000000   0.0000000   0.0000000), wk =   0.1111111
        k(    7) = (   0.0000000   0.0540869   0.0000000), wk =   0.2222222
        k(    8) = (   0.0254968   0.0180290   0.0000000), wk =   0.2222222
        k(    9) = (   0.0254968   0.0721158   0.0000000), wk =   0.2222222
        k(   10) = (   0.0254968  -0.0360579   0.0000000), wk =   0.2222222

     Dense  grid:  1596589 G-vectors     FFT dimensions: ( 180,  96, 240)

     Smooth grid:   403729 G-vectors     FFT dimensions: ( 108,  64, 150)

     Largest allocated arrays     est. size (Mb)     dimensions
        Kohn-Sham Wavefunctions        13.59 Mb     (    3181,  280)
        NL pseudopotentials            31.45 Mb     (    3181,  648)
        Each V/rho on FFT grid          7.91 Mb     (  259200,   2)
        Each G-vector array             0.76 Mb     (   99791)
        G-vector shells                 0.33 Mb     (   42988)
     Largest temporary arrays     est. size (Mb)     dimensions
        Auxiliary wavefunctions        54.36 Mb     (    3181, 1120)
        Each subspace H/S matrix       19.14 Mb     (    1120, 1120)
        Each <psi_i|beta_j> matrix      2.77 Mb     (     648,  280)
        Arrays for rho mixing          39.55 Mb     (  259200,   10)

     Initial potential from superposition of free atoms
     Check: negative starting charge=(component1):   -0.000524
     Check: negative starting charge=(component2):   -0.000282

     starting charge  359.99096, renormalised to  360.00000

     negative rho (up, down):  5.242E-04 2.823E-04
 
     Adding external electric field

     Computed dipole along edir(3) : 
        Dipole               -0.0000 Ry au,         -0.0000 Debye
        Dipole field         -0.0000 Ry au
 
        Potential amp.        0.0000 Ry
        Total length         34.5908 bohr
 
 
     Adding external electric field

     Computed dipole along edir(3) : 
        Dipole               -0.0000 Ry au,         -0.0000 Debye
        Dipole field         -0.0000 Ry au
 
        Potential amp.        0.0000 Ry
        Total length         34.5908 bohr
 
     Starting wfc are  324 randomized atomic wfcs

     total cpu time spent up to now is       50.2 secs

     Self-consistent Calculation

     iteration #  1     ecut=    44.10 Ry     beta=0.10
     Davidson diagonalization with overlap
     ethr =  1.00E-02,  avg # of iterations =  7.6

     negative rho (up, down):  4.857E-04 2.600E-04
 
     Adding external electric field

     Computed dipole along edir(3) : 
        Dipole                0.0000 Ry au,          0.0000 Debye
        Dipole field          0.0000 Ry au
 
        Potential amp.       -0.0000 Ry
        Total length         34.5908 bohr
 
 
     Adding external electric field

     Computed dipole along edir(3) : 
        Dipole                0.0000 Ry au,          0.0000 Debye
        Dipole field          0.0000 Ry au
 
        Potential amp.       -0.0000 Ry
        Total length         34.5908 bohr
 
 
     Magnetic moment per site:
     atom:    1    charge:    3.9565    magn:    1.1245    constr:    0.0000
     atom:    2    charge:    3.9768    magn:    1.1068    constr:    0.0000
     atom:    3    charge:    3.9768    magn:    1.1068    constr:    0.0000
     atom:    4    charge:    3.9565    magn:    1.1245    constr:    0.0000
     atom:    5    charge:    3.9565    magn:    1.1245    constr:    0.0000
     atom:    6    charge:    3.9768    magn:    1.1068    constr:    0.0000
     atom:    7    charge:    3.9768    magn:    1.1068    constr:    0.0000
     atom:    8    charge:    3.9565    magn:    1.1245    constr:    0.0000
     atom:    9    charge:    3.9565    magn:    1.1245    constr:    0.0000
     atom:   10    charge:    3.9768    magn:    1.1068    constr:    0.0000
     atom:   11    charge:    3.9768    magn:    1.1068    constr:    0.0000
     atom:   12    charge:    3.9565    magn:    1.1245    constr:    0.0000
     atom:   13    charge:    3.9565    magn:    1.1245    constr:    0.0000
     atom:   14    charge:    3.9768    magn:    1.1068    constr:    0.0000
     atom:   15    charge:    3.9768    magn:    1.1068    constr:    0.0000
     atom:   16    charge:    3.9565    magn:    1.1245    constr:    0.0000
     atom:   17    charge:    3.9565    magn:    1.1245    constr:    0.0000
     atom:   18    charge:    3.9768    magn:    1.1068    constr:    0.0000
     atom:   19    charge:    3.9768    magn:    1.1068    constr:    0.0000
     atom:   20    charge:    3.9565    magn:    1.1245    constr:    0.0000
     atom:   21    charge:    3.9565    magn:    1.1244    constr:    0.0000
     atom:   22    charge:    3.9768    magn:    1.1068    constr:    0.0000
     atom:   23    charge:    3.9768    magn:    1.1068    constr:    0.0000
     atom:   24    charge:    3.9565    magn:    1.1245    constr:    0.0000
     atom:   25    charge:    3.9565    magn:    1.1244    constr:    0.0000
     atom:   26    charge:    3.9768    magn:    1.1068    constr:    0.0000
     atom:   27    charge:    3.9768    magn:    1.1068    constr:    0.0000
     atom:   28    charge:    3.9565    magn:    1.1245    constr:    0.0000
     atom:   29    charge:    3.9565    magn:    1.1245    constr:    0.0000
     atom:   30    charge:    3.9768    magn:    1.1068    constr:    0.0000
     atom:   31    charge:    3.9768    magn:    1.1068    constr:    0.0000
     atom:   32    charge:    3.9565    magn:    1.1245    constr:    0.0000
     atom:   33    charge:    3.9565    magn:    1.1245    constr:    0.0000
     atom:   34    charge:    3.9768    magn:    1.1068    constr:    0.0000
     atom:   35    charge:    3.9768    magn:    1.1068    constr:    0.0000
     atom:   36    charge:    3.9565    magn:    1.1245    constr:    0.0000

     total cpu time spent up to now is      227.6 secs

     total energy              =   -3620.16919805 Ry
     Harris-Foulkes estimate   =   -3621.37717745 Ry
     estimated scf accuracy    <      12.02127922 Ry

     total magnetization       =    34.05 Bohr mag/cell
     absolute magnetization    =    34.06 Bohr mag/cell

     iteration #  2     ecut=    44.10 Ry     beta=0.10
     Davidson diagonalization with overlap
     ethr =  3.34E-03,  avg # of iterations =  1.2

     negative rho (up, down):  4.790E-04 2.756E-04
 
     Adding external electric field

     Computed dipole along edir(3) : 
        Dipole               -0.0005 Ry au,         -0.0013 Debye
        Dipole field         -0.0000 Ry au
 
        Potential amp.        0.0000 Ry
        Total length         34.5908 bohr
 
 
     Adding external electric field

     Computed dipole along edir(3) : 
        Dipole               -0.0005 Ry au,         -0.0013 Debye
        Dipole field         -0.0000 Ry au
 
        Potential amp.        0.0000 Ry
        Total length         34.5908 bohr
 
 
     Magnetic moment per site:
     atom:    1    charge:    3.9764    magn:    1.0875    constr:    0.0000
     atom:    2    charge:    3.9637    magn:    1.0922    constr:    0.0000
     atom:    3    charge:    3.9637    magn:    1.0922    constr:    0.0000
     atom:    4    charge:    3.9764    magn:    1.0875    constr:    0.0000
     atom:    5    charge:    3.9764    magn:    1.0875    constr:    0.0000
     atom:    6    charge:    3.9637    magn:    1.0922    constr:    0.0000
     atom:    7    charge:    3.9638    magn:    1.0922    constr:    0.0000
     atom:    8    charge:    3.9764    magn:    1.0875    constr:    0.0000
     atom:    9    charge:    3.9764    magn:    1.0875    constr:    0.0000
     atom:   10    charge:    3.9637    magn:    1.0922    constr:    0.0000
     atom:   11    charge:    3.9637    magn:    1.0922    constr:    0.0000
     atom:   12    charge:    3.9764    magn:    1.0874    constr:    0.0000
     atom:   13    charge:    3.9764    magn:    1.0875    constr:    0.0000
     atom:   14    charge:    3.9637    magn:    1.0922    constr:    0.0000
     atom:   15    charge:    3.9637    magn:    1.0922    constr:    0.0000
     atom:   16    charge:    3.9764    magn:    1.0875    constr:    0.0000
     atom:   17    charge:    3.9764    magn:    1.0875    constr:    0.0000
     atom:   18    charge:    3.9637    magn:    1.0922    constr:    0.0000
     atom:   19    charge:    3.9637    magn:    1.0922    constr:    0.0000
     atom:   20    charge:    3.9764    magn:    1.0875    constr:    0.0000
     atom:   21    charge:    3.9764    magn:    1.0875    constr:    0.0000
     atom:   22    charge:    3.9637    magn:    1.0922    constr:    0.0000
     atom:   23    charge:    3.9637    magn:    1.0922    constr:    0.0000
     atom:   24    charge:    3.9764    magn:    1.0875    constr:    0.0000
     atom:   25    charge:    3.9764    magn:    1.0875    constr:    0.0000
     atom:   26    charge:    3.9637    magn:    1.0922    constr:    0.0000
     atom:   27    charge:    3.9637    magn:    1.0922    constr:    0.0000
     atom:   28    charge:    3.9764    magn:    1.0875    constr:    0.0000
     atom:   29    charge:    3.9764    magn:    1.0875    constr:    0.0000
     atom:   30    charge:    3.9637    magn:    1.0922    constr:    0.0000
     atom:   31    charge:    3.9637    magn:    1.0922    constr:    0.0000
     atom:   32    charge:    3.9764    magn:    1.0875    constr:    0.0000
     atom:   33    charge:    3.9764    magn:    1.0875    constr:    0.0000
     atom:   34    charge:    3.9637    magn:    1.0922    constr:    0.0000
     atom:   35    charge:    3.9637    magn:    1.0922    constr:    0.0000
     atom:   36    charge:    3.9764    magn:    1.0875    constr:    0.0000

     total cpu time spent up to now is      335.9 secs

     total energy              =   -3620.34271924 Ry
     Harris-Foulkes estimate   =   -3621.22639370 Ry
     estimated scf accuracy    <      14.80930987 Ry

     total magnetization       =    36.64 Bohr mag/cell
     absolute magnetization    =    36.69 Bohr mag/cell

     iteration #  3     ecut=    44.10 Ry     beta=0.10
     Davidson diagonalization with overlap
     ethr =  3.34E-03,  avg # of iterations =  1.0

     negative rho (up, down):  4.768E-04 2.863E-04
 
     Adding external electric field

     Computed dipole along edir(3) : 
        Dipole                0.0062 Ry au,          0.0158 Debye
        Dipole field          0.0000 Ry au
 
        Potential amp.       -0.0005 Ry
        Total length         34.5908 bohr
 
 
     Adding external electric field

     Computed dipole along edir(3) : 
        Dipole                0.0062 Ry au,          0.0158 Debye
        Dipole field          0.0000 Ry au
 
        Potential amp.       -0.0005 Ry
        Total length         34.5908 bohr
 
 
     Magnetic moment per site:
     atom:    1    charge:    3.9991    magn:    0.9622    constr:    0.0000
     atom:    2    charge:    3.9709    magn:    0.9679    constr:    0.0000
     atom:    3    charge:    3.9709    magn:    0.9679    constr:    0.0000
     atom:    4    charge:    3.9991    magn:    0.9622    constr:    0.0000
     atom:    5    charge:    3.9992    magn:    0.9621    constr:    0.0000
     atom:    6    charge:    3.9709    magn:    0.9679    constr:    0.0000
     atom:    7    charge:    3.9709    magn:    0.9679    constr:    0.0000
     atom:    8    charge:    3.9991    magn:    0.9622    constr:    0.0000
     atom:    9    charge:    3.9991    magn:    0.9622    constr:    0.0000
     atom:   10    charge:    3.9709    magn:    0.9679    constr:    0.0000
     atom:   11    charge:    3.9709    magn:    0.9679    constr:    0.0000
     atom:   12    charge:    3.9991    magn:    0.9622    constr:    0.0000
     atom:   13    charge:    3.9992    magn:    0.9622    constr:    0.0000
     atom:   14    charge:    3.9710    magn:    0.9678    constr:    0.0000
     atom:   15    charge:    3.9709    magn:    0.9679    constr:    0.0000
     atom:   16    charge:    3.9991    magn:    0.9622    constr:    0.0000
     atom:   17    charge:    3.9992    magn:    0.9621    constr:    0.0000
     atom:   18    charge:    3.9710    magn:    0.9678    constr:    0.0000
     atom:   19    charge:    3.9709    magn:    0.9679    constr:    0.0000
     atom:   20    charge:    3.9991    magn:    0.9622    constr:    0.0000
     atom:   21    charge:    3.9992    magn:    0.9621    constr:    0.0000
     atom:   22    charge:    3.9710    magn:    0.9678    constr:    0.0000
     atom:   23    charge:    3.9709    magn:    0.9679    constr:    0.0000
     atom:   24    charge:    3.9991    magn:    0.9622    constr:    0.0000
     atom:   25    charge:    3.9992    magn:    0.9621    constr:    0.0000
     atom:   26    charge:    3.9709    magn:    0.9678    constr:    0.0000
     atom:   27    charge:    3.9709    magn:    0.9679    constr:    0.0000
     atom:   28    charge:    3.9991    magn:    0.9622    constr:    0.0000
     atom:   29    charge:    3.9992    magn:    0.9621    constr:    0.0000
     atom:   30    charge:    3.9710    magn:    0.9679    constr:    0.0000
     atom:   31    charge:    3.9709    magn:    0.9679    constr:    0.0000
     atom:   32    charge:    3.9991    magn:    0.9622    constr:    0.0000
     atom:   33    charge:    3.9992    magn:    0.9621    constr:    0.0000
     atom:   34    charge:    3.9710    magn:    0.9679    constr:    0.0000
     atom:   35    charge:    3.9709    magn:    0.9679    constr:    0.0000
     atom:   36    charge:    3.9991    magn:    0.9622    constr:    0.0000

     total cpu time spent up to now is      443.0 secs

     total energy              =   -3620.90014510 Ry
     Harris-Foulkes estimate   =   -3620.88036864 Ry
     estimated scf accuracy    <       4.12587191 Ry

     total magnetization       =    36.47 Bohr mag/cell
     absolute magnetization    =    36.53 Bohr mag/cell

     iteration #  4     ecut=    44.10 Ry     beta=0.10
     Davidson diagonalization with overlap
     ethr =  1.15E-03,  avg # of iterations =  7.2

     negative rho (up, down):  4.603E-04 2.963E-04
 
     Adding external electric field

     Computed dipole along edir(3) : 
        Dipole               -0.1476 Ry au,         -0.3751 Debye
        Dipole field         -0.0002 Ry au
 
        Potential amp.        0.0126 Ry
        Total length         34.5908 bohr
 
 
     Adding external electric field

     Computed dipole along edir(3) : 
        Dipole               -0.1476 Ry au,         -0.3751 Debye
        Dipole field         -0.0002 Ry au
 
        Potential amp.        0.0126 Ry
        Total length         34.5908 bohr
 
 
     Magnetic moment per site:
     atom:    1    charge:    3.9856    magn:    0.8880    constr:    0.0000
     atom:    2    charge:    3.9633    magn:    0.8932    constr:    0.0000
     atom:    3    charge:    3.9637    magn:    0.8928    constr:    0.0000
     atom:    4    charge:    3.9875    magn:    0.8863    constr:    0.0000
     atom:    5    charge:    3.9854    magn:    0.8881    constr:    0.0000
     atom:    6    charge:    3.9631    magn:    0.8933    constr:    0.0000
     atom:    7    charge:    3.9637    magn:    0.8928    constr:    0.0000
     atom:    8    charge:    3.9873    magn:    0.8865    constr:    0.0000
     atom:    9    charge:    3.9858    magn:    0.8878    constr:    0.0000
     atom:   10    charge:    3.9632    magn:    0.8932    constr:    0.0000
     atom:   11    charge:    3.9638    magn:    0.8927    constr:    0.0000
     atom:   12    charge:    3.9873    magn:    0.8864    constr:    0.0000
     atom:   13    charge:    3.9853    magn:    0.8882    constr:    0.0000
     atom:   14    charge:    3.9625    magn:    0.8938    constr:    0.0000
     atom:   15    charge:    3.9636    magn:    0.8929    constr:    0.0000
     atom:   16    charge:    3.9866    magn:    0.8871    constr:    0.0000
     atom:   17    charge:    3.9852    magn:    0.8883    constr:    0.0000
     atom:   18    charge:    3.9626    magn:    0.8938    constr:    0.0000
     atom:   19    charge:    3.9635    magn:    0.8929    constr:    0.0000
     atom:   20    charge:    3.9869    magn:    0.8869    constr:    0.0000
     atom:   21    charge:    3.9853    magn:    0.8882    constr:    0.0000
     atom:   22    charge:    3.9626    magn:    0.8938    constr:    0.0000
     atom:   23    charge:    3.9635    magn:    0.8930    constr:    0.0000
     atom:   24    charge:    3.9869    magn:    0.8869    constr:    0.0000
     atom:   25    charge:    3.9848    magn:    0.8887    constr:    0.0000
     atom:   26    charge:    3.9628    magn:    0.8936    constr:    0.0000
     atom:   27    charge:    3.9632    magn:    0.8933    constr:    0.0000
     atom:   28    charge:    3.9871    magn:    0.8867    constr:    0.0000
     atom:   29    charge:    3.9848    magn:    0.8887    constr:    0.0000
     atom:   30    charge:    3.9627    magn:    0.8937    constr:    0.0000
     atom:   31    charge:    3.9631    magn:    0.8933    constr:    0.0000
     atom:   32    charge:    3.9869    magn:    0.8868    constr:    0.0000
     atom:   33    charge:    3.9849    magn:    0.8886    constr:    0.0000
     atom:   34    charge:    3.9628    magn:    0.8936    constr:    0.0000
     atom:   35    charge:    3.9633    magn:    0.8932    constr:    0.0000
     atom:   36    charge:    3.9871    magn:    0.8867    constr:    0.0000

     total cpu time spent up to now is      585.1 secs

     total energy              =   -3621.37438071 Ry
     Harris-Foulkes estimate   =   -3621.16408652 Ry
     estimated scf accuracy    <       1.19457270 Ry

     total magnetization       =    38.39 Bohr mag/cell
     absolute magnetization    =    38.64 Bohr mag/cell

     iteration #  5     ecut=    44.10 Ry     beta=0.10
     Davidson diagonalization with overlap
     c_bands:  1 eigenvalues not converged
     ethr =  3.32E-04,  avg # of iterations =  5.8

     negative rho (up, down):  4.494E-04 2.839E-04
 
     Adding external electric field

     Computed dipole along edir(3) : 
        Dipole                0.1251 Ry au,          0.3180 Debye
        Dipole field          0.0002 Ry au
 
        Potential amp.       -0.0107 Ry
        Total length         34.5908 bohr
 
 
     Adding external electric field

     Computed dipole along edir(3) : 
        Dipole                0.1251 Ry au,          0.3180 Debye
        Dipole field          0.0002 Ry au
 
        Potential amp.       -0.0107 Ry
        Total length         34.5908 bohr
 
 
     Magnetic moment per site:
     atom:    1    charge:    3.9863    magn:    0.8692    constr:    0.0000
     atom:    2    charge:    3.9630    magn:    0.8754    constr:    0.0000
     atom:    3    charge:    3.9625    magn:    0.8758    constr:    0.0000
     atom:    4    charge:    3.9846    magn:    0.8707    constr:    0.0000
     atom:    5    charge:    3.9862    magn:    0.8692    constr:    0.0000
     atom:    6    charge:    3.9629    magn:    0.8754    constr:    0.0000
     atom:    7    charge:    3.9625    magn:    0.8758    constr:    0.0000
     atom:    8    charge:    3.9845    magn:    0.8708    constr:    0.0000
     atom:    9    charge:    3.9864    magn:    0.8691    constr:    0.0000
     atom:   10    charge:    3.9630    magn:    0.8753    constr:    0.0000
     atom:   11    charge:    3.9625    magn:    0.8758    constr:    0.0000
     atom:   12    charge:    3.9845    magn:    0.8708    constr:    0.0000
     atom:   13    charge:    3.9864    magn:    0.8691    constr:    0.0000
     atom:   14    charge:    3.9631    magn:    0.8753    constr:    0.0000
     atom:   15    charge:    3.9626    magn:    0.8758    constr:    0.0000
     atom:   16    charge:    3.9849    magn:    0.8704    constr:    0.0000
     atom:   17    charge:    3.9863    magn:    0.8692    constr:    0.0000
     atom:   18    charge:    3.9631    magn:    0.8753    constr:    0.0000
     atom:   19    charge:    3.9625    magn:    0.8758    constr:    0.0000
     atom:   20    charge:    3.9849    magn:    0.8704    constr:    0.0000
     atom:   21    charge:    3.9864    magn:    0.8691    constr:    0.0000
     atom:   22    charge:    3.9631    magn:    0.8753    constr:    0.0000
     atom:   23    charge:    3.9625    magn:    0.8758    constr:    0.0000
     atom:   24    charge:    3.9850    magn:    0.8704    constr:    0.0000
     atom:   25    charge:    3.9864    magn:    0.8690    constr:    0.0000
     atom:   26    charge:    3.9630    magn:    0.8753    constr:    0.0000
     atom:   27    charge:    3.9626    magn:    0.8757    constr:    0.0000
     atom:   28    charge:    3.9848    magn:    0.8705    constr:    0.0000
     atom:   29    charge:    3.9864    magn:    0.8691    constr:    0.0000
     atom:   30    charge:    3.9630    magn:    0.8754    constr:    0.0000
     atom:   31    charge:    3.9626    magn:    0.8757    constr:    0.0000
     atom:   32    charge:    3.9848    magn:    0.8705    constr:    0.0000
     atom:   33    charge:    3.9864    magn:    0.8690    constr:    0.0000
     atom:   34    charge:    3.9630    magn:    0.8754    constr:    0.0000
     atom:   35    charge:    3.9627    magn:    0.8757    constr:    0.0000
     atom:   36    charge:    3.9848    magn:    0.8705    constr:    0.0000

     total cpu time spent up to now is      713.8 secs

     total energy              =   -3621.42941321 Ry
     Harris-Foulkes estimate   =   -3621.43937510 Ry
     estimated scf accuracy    <       3.07273868 Ry

     total magnetization       =    35.30 Bohr mag/cell
     absolute magnetization    =    36.03 Bohr mag/cell

     iteration #  6     ecut=    44.10 Ry     beta=0.10
     Davidson diagonalization with overlap
     ethr =  3.32E-04,  avg # of iterations =  1.2

     negative rho (up, down):  5.264E-04 6.205E-04
 
     Adding external electric field

     Computed dipole along edir(3) : 
        Dipole               -0.0737 Ry au,         -0.1873 Debye
        Dipole field         -0.0001 Ry au
 
        Potential amp.        0.0063 Ry
        Total length         34.5908 bohr
 
 
     Adding external electric field

     Computed dipole along edir(3) : 
        Dipole               -0.0737 Ry au,         -0.1873 Debye
        Dipole field         -0.0001 Ry au
 
        Potential amp.        0.0063 Ry
        Total length         34.5908 bohr
 
 
     Magnetic moment per site:
     atom:    1    charge:    3.9844    magn:    0.5660    constr:    0.0000
     atom:    2    charge:    3.9606    magn:    0.5706    constr:    0.0000
     atom:    3    charge:    3.9619    magn:    0.5697    constr:    0.0000
     atom:    4    charge:    3.9844    magn:    0.5664    constr:    0.0000
     atom:    5    charge:    3.9863    magn:    0.5645    constr:    0.0000
     atom:    6    charge:    3.9620    magn:    0.5695    constr:    0.0000
     atom:    7    charge:    3.9626    magn:    0.5690    constr:    0.0000
     atom:    8    charge:    3.9865    magn:    0.5646    constr:    0.0000
     atom:    9    charge:    3.9829    magn:    0.5673    constr:    0.0000
     atom:   10    charge:    3.9610    magn:    0.5703    constr:    0.0000
     atom:   11    charge:    3.9615    magn:    0.5699    constr:    0.0000
     atom:   12    charge:    3.9862    magn:    0.5648    constr:    0.0000
     atom:   13    charge:    3.9867    magn:    0.5641    constr:    0.0000
     atom:   14    charge:    3.9667    magn:    0.5655    constr:    0.0000
     atom:   15    charge:    3.9633    magn:    0.5684    constr:    0.0000
     atom:   16    charge:    3.9926    magn:    0.5588    constr:    0.0000
     atom:   17    charge:    3.9879    magn:    0.5631    constr:    0.0000
     atom:   18    charge:    3.9661    magn:    0.5661    constr:    0.0000
     atom:   19    charge:    3.9637    magn:    0.5681    constr:    0.0000
     atom:   20    charge:    3.9904    magn:    0.5607    constr:    0.0000
     atom:   21    charge:    3.9869    magn:    0.5638    constr:    0.0000
     atom:   22    charge:    3.9665    magn:    0.5658    constr:    0.0000
     atom:   23    charge:    3.9644    magn:    0.5675    constr:    0.0000
     atom:   24    charge:    3.9905    magn:    0.5607    constr:    0.0000
     atom:   25    charge:    3.9913    magn:    0.5601    constr:    0.0000
     atom:   26    charge:    3.9646    magn:    0.5672    constr:    0.0000
     atom:   27    charge:    3.9670    magn:    0.5652    constr:    0.0000
     atom:   28    charge:    3.9888    magn:    0.5623    constr:    0.0000
     atom:   29    charge:    3.9913    magn:    0.5601    constr:    0.0000
     atom:   30    charge:    3.9651    magn:    0.5669    constr:    0.0000
     atom:   31    charge:    3.9671    magn:    0.5652    constr:    0.0000
     atom:   32    charge:    3.9901    magn:    0.5612    constr:    0.0000
     atom:   33    charge:    3.9906    magn:    0.5607    constr:    0.0000
     atom:   34    charge:    3.9643    magn:    0.5676    constr:    0.0000
     atom:   35    charge:    3.9660    magn:    0.5661    constr:    0.0000
     atom:   36    charge:    3.9887    magn:    0.5624    constr:    0.0000

     total cpu time spent up to now is      821.4 secs

     total energy              =   -3621.93392583 Ry
     Harris-Foulkes estimate   =   -3621.48919724 Ry
     estimated scf accuracy    <       2.36931977 Ry

     total magnetization       =    35.01 Bohr mag/cell
     absolute magnetization    =    35.85 Bohr mag/cell

     iteration #  7     ecut=    44.10 Ry     beta=0.10
     Davidson diagonalization with overlap
     ethr =  3.32E-04,  avg # of iterations =  8.7

     negative rho (up, down):  5.508E-04 7.329E-04
 
     Adding external electric field

     Computed dipole along edir(3) : 
        Dipole                0.0013 Ry au,          0.0032 Debye
        Dipole field          0.0000 Ry au
 
        Potential amp.       -0.0001 Ry
        Total length         34.5908 bohr
 
 
     Adding external electric field

     Computed dipole along edir(3) : 
        Dipole                0.0013 Ry au,          0.0032 Debye
        Dipole field          0.0000 Ry au
 
        Potential amp.       -0.0001 Ry
        Total length         34.5908 bohr
 
 
     Magnetic moment per site:
     atom:    1    charge:    3.9879    magn:    0.4610    constr:    0.0000
     atom:    2    charge:    3.9647    magn:    0.4650    constr:    0.0000
     atom:    3    charge:    3.9653    magn:    0.4645    constr:    0.0000
     atom:    4    charge:    3.9879    magn:    0.4614    constr:    0.0000
     atom:    5    charge:    3.9897    magn:    0.4594    constr:    0.0000
     atom:    6    charge:    3.9658    magn:    0.4640    constr:    0.0000
     atom:    7    charge:    3.9657    magn:    0.4641    constr:    0.0000
     atom:    8    charge:    3.9897    magn:    0.4597    constr:    0.0000
     atom:    9    charge:    3.9863    magn:    0.4625    constr:    0.0000
     atom:   10    charge:    3.9649    magn:    0.4648    constr:    0.0000
     atom:   11    charge:    3.9650    magn:    0.4648    constr:    0.0000
     atom:   12    charge:    3.9896    magn:    0.4599    constr:    0.0000
     atom:   13    charge:    3.9888    magn:    0.4601    constr:    0.0000
     atom:   14    charge:    3.9653    magn:    0.4638    constr:    0.0000
     atom:   15    charge:    3.9651    magn:    0.4644    constr:    0.0000
     atom:   16    charge:    3.9891    magn:    0.4594    constr:    0.0000
     atom:   17    charge:    3.9898    magn:    0.4592    constr:    0.0000
     atom:   18    charge:    3.9651    magn:    0.4641    constr:    0.0000
     atom:   19    charge:    3.9654    magn:    0.4641    constr:    0.0000
     atom:   20    charge:    3.9881    magn:    0.4604    constr:    0.0000
     atom:   21    charge:    3.9887    magn:    0.4601    constr:    0.0000
     atom:   22    charge:    3.9652    magn:    0.4640    constr:    0.0000
     atom:   23    charge:    3.9658    magn:    0.4638    constr:    0.0000
     atom:   24    charge:    3.9879    magn:    0.4605    constr:    0.0000
     atom:   25    charge:    3.9887    magn:    0.4599    constr:    0.0000
     atom:   26    charge:    3.9656    magn:    0.4638    constr:    0.0000
     atom:   27    charge:    3.9646    magn:    0.4643    constr:    0.0000
     atom:   28    charge:    3.9888    magn:    0.4601    constr:    0.0000
     atom:   29    charge:    3.9889    magn:    0.4598    constr:    0.0000
     atom:   30    charge:    3.9659    magn:    0.4635    constr:    0.0000
     atom:   31    charge:    3.9648    magn:    0.4641    constr:    0.0000
     atom:   32    charge:    3.9896    magn:    0.4593    constr:    0.0000
     atom:   33    charge:    3.9886    magn:    0.4601    constr:    0.0000
     atom:   34    charge:    3.9656    magn:    0.4639    constr:    0.0000
     atom:   35    charge:    3.9642    magn:    0.4647    constr:    0.0000
     atom:   36    charge:    3.9889    magn:    0.4600    constr:    0.0000

     total cpu time spent up to now is      973.2 secs

     total energy              =   -3622.12980401 Ry
     Harris-Foulkes estimate   =   -3622.22126963 Ry
     estimated scf accuracy    <       8.40857540 Ry

     total magnetization       =    29.59 Bohr mag/cell
     absolute magnetization    =    32.58 Bohr mag/cell

     iteration #  8     ecut=    44.10 Ry     beta=0.10
     Davidson diagonalization with overlap
     ethr =  3.32E-04,  avg # of iterations =  1.1

     negative rho (up, down):  5.162E-04 6.854E-04
 
     Adding external electric field

     Computed dipole along edir(3) : 
        Dipole                0.0013 Ry au,          0.0034 Debye
        Dipole field          0.0000 Ry au
 
        Potential amp.       -0.0001 Ry
        Total length         34.5908 bohr
 
 
     Adding external electric field

     Computed dipole along edir(3) : 
        Dipole                0.0013 Ry au,          0.0034 Debye
        Dipole field          0.0000 Ry au
 
        Potential amp.       -0.0001 Ry
        Total length         34.5908 bohr
 
 
     Magnetic moment per site:
     atom:    1    charge:    3.9879    magn:    0.4396    constr:    0.0000
     atom:    2    charge:    3.9670    magn:    0.4423    constr:    0.0000
     atom:    3    charge:    3.9668    magn:    0.4424    constr:    0.0000
     atom:    4    charge:    3.9881    magn:    0.4400    constr:    0.0000
     atom:    5    charge:    3.9876    magn:    0.4395    constr:    0.0000
     atom:    6    charge:    3.9662    magn:    0.4427    constr:    0.0000
     atom:    7    charge:    3.9662    magn:    0.4427    constr:    0.0000
     atom:    8    charge:    3.9875    magn:    0.4399    constr:    0.0000
     atom:    9    charge:    3.9879    magn:    0.4400    constr:    0.0000
     atom:   10    charge:    3.9666    magn:    0.4426    constr:    0.0000
     atom:   11    charge:    3.9670    magn:    0.4423    constr:    0.0000
     atom:   12    charge:    3.9878    magn:    0.4398    constr:    0.0000
     atom:   13    charge:    3.9876    magn:    0.4395    constr:    0.0000
     atom:   14    charge:    3.9665    magn:    0.4419    constr:    0.0000
     atom:   15    charge:    3.9668    magn:    0.4421    constr:    0.0000
     atom:   16    charge:    3.9879    magn:    0.4388    constr:    0.0000
     atom:   17    charge:    3.9874    magn:    0.4395    constr:    0.0000
     atom:   18    charge:    3.9667    magn:    0.4418    constr:    0.0000
     atom:   19    charge:    3.9667    magn:    0.4421    constr:    0.0000
     atom:   20    charge:    3.9881    magn:    0.4389    constr:    0.0000
     atom:   21    charge:    3.9873    magn:    0.4398    constr:    0.0000
     atom:   22    charge:    3.9666    magn:    0.4419    constr:    0.0000
     atom:   23    charge:    3.9663    magn:    0.4423    constr:    0.0000
     atom:   24    charge:    3.9879    magn:    0.4391    constr:    0.0000
     atom:   25    charge:    3.9875    magn:    0.4394    constr:    0.0000
     atom:   26    charge:    3.9666    magn:    0.4420    constr:    0.0000
     atom:   27    charge:    3.9665    magn:    0.4419    constr:    0.0000
     atom:   28    charge:    3.9877    magn:    0.4394    constr:    0.0000
     atom:   29    charge:    3.9877    magn:    0.4393    constr:    0.0000
     atom:   30    charge:    3.9666    magn:    0.4419    constr:    0.0000
     atom:   31    charge:    3.9667    magn:    0.4418    constr:    0.0000
     atom:   32    charge:    3.9876    magn:    0.4393    constr:    0.0000
     atom:   33    charge:    3.9878    magn:    0.4393    constr:    0.0000
     atom:   34    charge:    3.9671    magn:    0.4417    constr:    0.0000
     atom:   35    charge:    3.9668    magn:    0.4418    constr:    0.0000
     atom:   36    charge:    3.9879    magn:    0.4393    constr:    0.0000

     total cpu time spent up to now is     1080.8 secs

     total energy              =   -3622.20514798 Ry
     Harris-Foulkes estimate   =   -3622.24525594 Ry
     estimated scf accuracy    <       1.40885559 Ry

     total magnetization       =    26.98 Bohr mag/cell
     absolute magnetization    =    30.85 Bohr mag/cell

     iteration #  9     ecut=    44.10 Ry     beta=0.10
     Davidson diagonalization with overlap
     ethr =  3.32E-04,  avg # of iterations =  1.0

     negative rho (up, down):  4.813E-04 6.332E-04
 
     Adding external electric field

     Computed dipole along edir(3) : 
        Dipole                0.0019 Ry au,          0.0049 Debye
        Dipole field          0.0000 Ry au
 
        Potential amp.       -0.0002 Ry
        Total length         34.5908 bohr
 
 
     Adding external electric field

     Computed dipole along edir(3) : 
        Dipole                0.0019 Ry au,          0.0049 Debye
        Dipole field          0.0000 Ry au
 
        Potential amp.       -0.0002 Ry
        Total length         34.5908 bohr
 
 
     Magnetic moment per site:
     atom:    1    charge:    3.9862    magn:    0.4247    constr:    0.0000
     atom:    2    charge:    3.9684    magn:    0.4253    constr:    0.0000
     atom:    3    charge:    3.9684    magn:    0.4252    constr:    0.0000
     atom:    4    charge:    3.9868    magn:    0.4247    constr:    0.0000
     atom:    5    charge:    3.9862    magn:    0.4243    constr:    0.0000
     atom:    6    charge:    3.9686    magn:    0.4250    constr:    0.0000
     atom:    7    charge:    3.9686    magn:    0.4250    constr:    0.0000
     atom:    8    charge:    3.9867    magn:    0.4242    constr:    0.0000
     atom:    9    charge:    3.9865    magn:    0.4249    constr:    0.0000
     atom:   10    charge:    3.9686    magn:    0.4251    constr:    0.0000
     atom:   11    charge:    3.9684    magn:    0.4253    constr:    0.0000
     atom:   12    charge:    3.9867    magn:    0.4243    constr:    0.0000
     atom:   13    charge:    3.9865    magn:    0.4241    constr:    0.0000
     atom:   14    charge:    3.9687    magn:    0.4242    constr:    0.0000
     atom:   15    charge:    3.9685    magn:    0.4249    constr:    0.0000
     atom:   16    charge:    3.9865    magn:    0.4234    constr:    0.0000
     atom:   17    charge:    3.9863    magn:    0.4240    constr:    0.0000
     atom:   18    charge:    3.9685    magn:    0.4245    constr:    0.0000
     atom:   19    charge:    3.9685    magn:    0.4248    constr:    0.0000
     atom:   20    charge:    3.9864    magn:    0.4238    constr:    0.0000
     atom:   21    charge:    3.9867    magn:    0.4239    constr:    0.0000
     atom:   22    charge:    3.9687    magn:    0.4243    constr:    0.0000
     atom:   23    charge:    3.9687    magn:    0.4246    constr:    0.0000
     atom:   24    charge:    3.9867    magn:    0.4237    constr:    0.0000
     atom:   25    charge:    3.9866    magn:    0.4238    constr:    0.0000
     atom:   26    charge:    3.9684    magn:    0.4247    constr:    0.0000
     atom:   27    charge:    3.9688    magn:    0.4243    constr:    0.0000
     atom:   28    charge:    3.9866    magn:    0.4239    constr:    0.0000
     atom:   29    charge:    3.9864    magn:    0.4239    constr:    0.0000
     atom:   30    charge:    3.9683    magn:    0.4246    constr:    0.0000
     atom:   31    charge:    3.9685    magn:    0.4244    constr:    0.0000
     atom:   32    charge:    3.9865    magn:    0.4238    constr:    0.0000
     atom:   33    charge:    3.9864    magn:    0.4240    constr:    0.0000
     atom:   34    charge:    3.9681    magn:    0.4249    constr:    0.0000
     atom:   35    charge:    3.9686    magn:    0.4245    constr:    0.0000
     atom:   36    charge:    3.9863    magn:    0.4242    constr:    0.0000

     total cpu time spent up to now is     1188.1 secs

     total energy              =   -3622.16116491 Ry
     Harris-Foulkes estimate   =   -3622.21144812 Ry
     estimated scf accuracy    <       1.00620309 Ry

     total magnetization       =    26.22 Bohr mag/cell
     absolute magnetization    =    30.28 Bohr mag/cell

     iteration # 10     ecut=    44.10 Ry     beta=0.10
     Davidson diagonalization with overlap
     ethr =  2.80E-04,  avg # of iterations =  1.0

     negative rho (up, down):  4.549E-04 5.804E-04
 
     Adding external electric field

     Computed dipole along edir(3) : 
        Dipole                0.0017 Ry au,          0.0043 Debye
        Dipole field          0.0000 Ry au
 
        Potential amp.       -0.0001 Ry
        Total length         34.5908 bohr
 
 
     Adding external electric field

     Computed dipole along edir(3) : 
        Dipole                0.0017 Ry au,          0.0043 Debye
        Dipole field          0.0000 Ry au
 
        Potential amp.       -0.0001 Ry
        Total length         34.5908 bohr
 
 
     Magnetic moment per site:
     atom:    1    charge:    3.9861    magn:    0.4223    constr:    0.0000
     atom:    2    charge:    3.9691    magn:    0.4223    constr:    0.0000
     atom:    3    charge:    3.9693    magn:    0.4220    constr:    0.0000
     atom:    4    charge:    3.9863    magn:    0.4226    constr:    0.0000
     atom:    5    charge:    3.9861    magn:    0.4218    constr:    0.0000
     atom:    6    charge:    3.9692    magn:    0.4220    constr:    0.0000
     atom:    7    charge:    3.9694    magn:    0.4218    constr:    0.0000
     atom:    8    charge:    3.9863    magn:    0.4220    constr:    0.0000
     atom:    9    charge:    3.9860    magn:    0.4228    constr:    0.0000
     atom:   10    charge:    3.9691    magn:    0.4222    constr:    0.0000
     atom:   11    charge:    3.9692    magn:    0.4221    constr:    0.0000
     atom:   12    charge:    3.9863    magn:    0.4221    constr:    0.0000
     atom:   13    charge:    3.9860    magn:    0.4220    constr:    0.0000
     atom:   14    charge:    3.9692    magn:    0.4212    constr:    0.0000
     atom:   15    charge:    3.9691    magn:    0.4218    constr:    0.0000
     atom:   16    charge:    3.9861    magn:    0.4212    constr:    0.0000
     atom:   17    charge:    3.9860    magn:    0.4218    constr:    0.0000
     atom:   18    charge:    3.9692    magn:    0.4214    constr:    0.0000
     atom:   19    charge:    3.9691    magn:    0.4217    constr:    0.0000
     atom:   20    charge:    3.9861    magn:    0.4216    constr:    0.0000
     atom:   21    charge:    3.9860    magn:    0.4220    constr:    0.0000
     atom:   22    charge:    3.9692    magn:    0.4213    constr:    0.0000
     atom:   23    charge:    3.9691    magn:    0.4216    constr:    0.0000
     atom:   24    charge:    3.9860    magn:    0.4217    constr:    0.0000
     atom:   25    charge:    3.9862    magn:    0.4216    constr:    0.0000
     atom:   26    charge:    3.9693    magn:    0.4214    constr:    0.0000
     atom:   27    charge:    3.9693    magn:    0.4212    constr:    0.0000
     atom:   28    charge:    3.9863    magn:    0.4216    constr:    0.0000
     atom:   29    charge:    3.9863    magn:    0.4215    constr:    0.0000
     atom:   30    charge:    3.9693    magn:    0.4213    constr:    0.0000
     atom:   31    charge:    3.9693    magn:    0.4212    constr:    0.0000
     atom:   32    charge:    3.9864    magn:    0.4213    constr:    0.0000
     atom:   33    charge:    3.9862    magn:    0.4216    constr:    0.0000
     atom:   34    charge:    3.9692    magn:    0.4214    constr:    0.0000
     atom:   35    charge:    3.9692    magn:    0.4214    constr:    0.0000
     atom:   36    charge:    3.9864    magn:    0.4216    constr:    0.0000

     total cpu time spent up to now is     1295.6 secs

     total energy              =   -3622.15183786 Ry
     Harris-Foulkes estimate   =   -3622.16737532 Ry
     estimated scf accuracy    <       0.58193985 Ry

     total magnetization       =    25.47 Bohr mag/cell
     absolute magnetization    =    29.69 Bohr mag/cell

     iteration # 11     ecut=    44.10 Ry     beta=0.10
     Davidson diagonalization with overlap
     ethr =  1.62E-04,  avg # of iterations =  1.0

     negative rho (up, down):  4.327E-04 5.311E-04
 
     Adding external electric field

     Computed dipole along edir(3) : 
        Dipole                0.0011 Ry au,          0.0027 Debye
        Dipole field          0.0000 Ry au
 
        Potential amp.       -0.0001 Ry
        Total length         34.5908 bohr
 
 
     Adding external electric field

     Computed dipole along edir(3) : 
        Dipole                0.0011 Ry au,          0.0027 Debye
        Dipole field          0.0000 Ry au
 
        Potential amp.       -0.0001 Ry
        Total length         34.5908 bohr
 
 
     Magnetic moment per site:
     atom:    1    charge:    3.9859    magn:    0.4235    constr:    0.0000
     atom:    2    charge:    3.9699    magn:    0.4224    constr:    0.0000
     atom:    3    charge:    3.9699    magn:    0.4223    constr:    0.0000
     atom:    4    charge:    3.9861    magn:    0.4239    constr:    0.0000
     atom:    5    charge:    3.9860    magn:    0.4230    constr:    0.0000
     atom:    6    charge:    3.9698    magn:    0.4223    constr:    0.0000
     atom:    7    charge:    3.9697    magn:    0.4223    constr:    0.0000
     atom:    8    charge:    3.9861    magn:    0.4232    constr:    0.0000
     atom:    9    charge:    3.9856    magn:    0.4242    constr:    0.0000
     atom:   10    charge:    3.9697    magn:    0.4225    constr:    0.0000
     atom:   11    charge:    3.9699    magn:    0.4224    constr:    0.0000
     atom:   12    charge:    3.9862    magn:    0.4233    constr:    0.0000
     atom:   13    charge:    3.9860    magn:    0.4231    constr:    0.0000
     atom:   14    charge:    3.9699    magn:    0.4215    constr:    0.0000
     atom:   15    charge:    3.9700    magn:    0.4219    constr:    0.0000
     atom:   16    charge:    3.9862    magn:    0.4222    constr:    0.0000
     atom:   17    charge:    3.9862    magn:    0.4227    constr:    0.0000
     atom:   18    charge:    3.9700    magn:    0.4215    constr:    0.0000
     atom:   19    charge:    3.9700    magn:    0.4218    constr:    0.0000
     atom:   20    charge:    3.9862    magn:    0.4226    constr:    0.0000
     atom:   21    charge:    3.9858    magn:    0.4233    constr:    0.0000
     atom:   22    charge:    3.9698    magn:    0.4216    constr:    0.0000
     atom:   23    charge:    3.9699    magn:    0.4218    constr:    0.0000
     atom:   24    charge:    3.9860    magn:    0.4228    constr:    0.0000
     atom:   25    charge:    3.9859    magn:    0.4230    constr:    0.0000
     atom:   26    charge:    3.9698    magn:    0.4218    constr:    0.0000
     atom:   27    charge:    3.9696    magn:    0.4217    constr:    0.0000
     atom:   28    charge:    3.9858    magn:    0.4231    constr:    0.0000
     atom:   29    charge:    3.9861    magn:    0.4227    constr:    0.0000
     atom:   30    charge:    3.9699    magn:    0.4216    constr:    0.0000
     atom:   31    charge:    3.9698    magn:    0.4215    constr:    0.0000
     atom:   32    charge:    3.9860    magn:    0.4227    constr:    0.0000
     atom:   33    charge:    3.9860    magn:    0.4229    constr:    0.0000
     atom:   34    charge:    3.9701    magn:    0.4216    constr:    0.0000
     atom:   35    charge:    3.9697    magn:    0.4218    constr:    0.0000
     atom:   36    charge:    3.9861    magn:    0.4229    constr:    0.0000

     total cpu time spent up to now is     1403.0 secs

     total energy              =   -3622.14127713 Ry
     Harris-Foulkes estimate   =   -3622.15318600 Ry
     estimated scf accuracy    <       0.44990411 Ry

     total magnetization       =    25.27 Bohr mag/cell
     absolute magnetization    =    29.53 Bohr mag/cell

     iteration # 12     ecut=    44.10 Ry     beta=0.10
     Davidson diagonalization with overlap
     ethr =  1.25E-04,  avg # of iterations =  1.0

     negative rho (up, down):  4.067E-04 4.526E-04
 
     Adding external electric field

     Computed dipole along edir(3) : 
        Dipole               -0.0012 Ry au,         -0.0030 Debye
        Dipole field         -0.0000 Ry au
 
        Potential amp.        0.0001 Ry
        Total length         34.5908 bohr
 
 
     Adding external electric field

     Computed dipole along edir(3) : 
        Dipole               -0.0012 Ry au,         -0.0030 Debye
        Dipole field         -0.0000 Ry au
 
        Potential amp.        0.0001 Ry
        Total length         34.5908 bohr
 
 
     Magnetic moment per site:
     atom:    1    charge:    3.9854    magn:    0.4429    constr:    0.0000
     atom:    2    charge:    3.9736    magn:    0.4355    constr:    0.0000
     atom:    3    charge:    3.9732    magn:    0.4355    constr:    0.0000
     atom:    4    charge:    3.9854    magn:    0.4433    constr:    0.0000
     atom:    5    charge:    3.9860    magn:    0.4421    constr:    0.0000
     atom:    6    charge:    3.9728    magn:    0.4357    constr:    0.0000
     atom:    7    charge:    3.9727    magn:    0.4357    constr:    0.0000
     atom:    8    charge:    3.9855    magn:    0.4427    constr:    0.0000
     atom:    9    charge:    3.9854    magn:    0.4434    constr:    0.0000
     atom:   10    charge:    3.9733    magn:    0.4356    constr:    0.0000
     atom:   11    charge:    3.9736    magn:    0.4354    constr:    0.0000
     atom:   12    charge:    3.9859    magn:    0.4425    constr:    0.0000
     atom:   13    charge:    3.9855    magn:    0.4425    constr:    0.0000
     atom:   14    charge:    3.9733    magn:    0.4347    constr:    0.0000
     atom:   15    charge:    3.9732    magn:    0.4353    constr:    0.0000
     atom:   16    charge:    3.9858    magn:    0.4415    constr:    0.0000
     atom:   17    charge:    3.9852    magn:    0.4425    constr:    0.0000
     atom:   18    charge:    3.9728    magn:    0.4351    constr:    0.0000
     atom:   19    charge:    3.9731    magn:    0.4353    constr:    0.0000
     atom:   20    charge:    3.9854    magn:    0.4422    constr:    0.0000
     atom:   21    charge:    3.9857    magn:    0.4424    constr:    0.0000
     atom:   22    charge:    3.9736    magn:    0.4346    constr:    0.0000
     atom:   23    charge:    3.9734    magn:    0.4350    constr:    0.0000
     atom:   24    charge:    3.9860    magn:    0.4417    constr:    0.0000
     atom:   25    charge:    3.9860    magn:    0.4419    constr:    0.0000
     atom:   26    charge:    3.9734    magn:    0.4349    constr:    0.0000
     atom:   27    charge:    3.9732    magn:    0.4348    constr:    0.0000
     atom:   28    charge:    3.9858    magn:    0.4421    constr:    0.0000
     atom:   29    charge:    3.9853    magn:    0.4424    constr:    0.0000
     atom:   30    charge:    3.9734    magn:    0.4347    constr:    0.0000
     atom:   31    charge:    3.9726    magn:    0.4351    constr:    0.0000
     atom:   32    charge:    3.9856    magn:    0.4420    constr:    0.0000
     atom:   33    charge:    3.9855    magn:    0.4422    constr:    0.0000
     atom:   34    charge:    3.9738    magn:    0.4346    constr:    0.0000
     atom:   35    charge:    3.9730    magn:    0.4350    constr:    0.0000
     atom:   36    charge:    3.9853    magn:    0.4425    constr:    0.0000

     total cpu time spent up to now is     1510.3 secs

     total energy              =   -3622.08618922 Ry
     Harris-Foulkes estimate   =   -3622.14224834 Ry
     estimated scf accuracy    <       0.35104765 Ry

     total magnetization       =    25.19 Bohr mag/cell
     absolute magnetization    =    29.45 Bohr mag/cell

     iteration # 13     ecut=    44.10 Ry     beta=0.10
     Davidson diagonalization with overlap
     ethr =  9.75E-05,  avg # of iterations =  2.8

     negative rho (up, down):  3.935E-04 4.276E-04
 
     Adding external electric field

     Computed dipole along edir(3) : 
        Dipole                0.0001 Ry au,          0.0001 Debye
        Dipole field          0.0000 Ry au
 
        Potential amp.       -0.0000 Ry
        Total length         34.5908 bohr
 
 
     Adding external electric field

     Computed dipole along edir(3) : 
        Dipole                0.0001 Ry au,          0.0001 Debye
        Dipole field          0.0000 Ry au
 
        Potential amp.       -0.0000 Ry
        Total length         34.5908 bohr
 
 
     Magnetic moment per site:
     atom:    1    charge:    3.9849    magn:    0.4334    constr:    0.0000
     atom:    2    charge:    3.9740    magn:    0.4245    constr:    0.0000
     atom:    3    charge:    3.9740    magn:    0.4242    constr:    0.0000
     atom:    4    charge:    3.9852    magn:    0.4334    constr:    0.0000
     atom:    5    charge:    3.9845    magn:    0.4332    constr:    0.0000
     atom:    6    charge:    3.9741    magn:    0.4242    constr:    0.0000
     atom:    7    charge:    3.9742    magn:    0.4241    constr:    0.0000
     atom:    8    charge:    3.9852    magn:    0.4329    constr:    0.0000
     atom:    9    charge:    3.9851    magn:    0.4336    constr:    0.0000
     atom:   10    charge:    3.9740    magn:    0.4245    constr:    0.0000
     atom:   11    charge:    3.9739    magn:    0.4244    constr:    0.0000
     atom:   12    charge:    3.9848    magn:    0.4332    constr:    0.0000
     atom:   13    charge:    3.9850    magn:    0.4329    constr:    0.0000
     atom:   14    charge:    3.9741    magn:    0.4235    constr:    0.0000
     atom:   15    charge:    3.9739    magn:    0.4240    constr:    0.0000
     atom:   16    charge:    3.9846    magn:    0.4324    constr:    0.0000
     atom:   17    charge:    3.9850    magn:    0.4326    constr:    0.0000
     atom:   18    charge:    3.9743    magn:    0.4234    constr:    0.0000
     atom:   19    charge:    3.9740    magn:    0.4239    constr:    0.0000
     atom:   20    charge:    3.9850    magn:    0.4324    constr:    0.0000
     atom:   21    charge:    3.9850    magn:    0.4329    constr:    0.0000
     atom:   22    charge:    3.9740    magn:    0.4236    constr:    0.0000
     atom:   23    charge:    3.9739    magn:    0.4239    constr:    0.0000
     atom:   24    charge:    3.9846    magn:    0.4328    constr:    0.0000
     atom:   25    charge:    3.9849    magn:    0.4327    constr:    0.0000
     atom:   26    charge:    3.9738    magn:    0.4238    constr:    0.0000
     atom:   27    charge:    3.9741    magn:    0.4235    constr:    0.0000
     atom:   28    charge:    3.9850    magn:    0.4327    constr:    0.0000
     atom:   29    charge:    3.9853    magn:    0.4324    constr:    0.0000
     atom:   30    charge:    3.9738    magn:    0.4237    constr:    0.0000
     atom:   31    charge:    3.9743    magn:    0.4233    constr:    0.0000
     atom:   32    charge:    3.9850    magn:    0.4324    constr:    0.0000
     atom:   33    charge:    3.9850    magn:    0.4326    constr:    0.0000
     atom:   34    charge:    3.9738    magn:    0.4238    constr:    0.0000
     atom:   35    charge:    3.9742    magn:    0.4236    constr:    0.0000
     atom:   36    charge:    3.9851    magn:    0.4326    constr:    0.0000

     total cpu time spent up to now is     1626.5 secs

     total energy              =   -3622.10142421 Ry
     Harris-Foulkes estimate   =   -3622.10544626 Ry
     estimated scf accuracy    <       0.04438268 Ry

     total magnetization       =    25.06 Bohr mag/cell
     absolute magnetization    =    29.21 Bohr mag/cell

     iteration # 14     ecut=    44.10 Ry     beta=0.10
     Davidson diagonalization with overlap
     ethr =  1.23E-05,  avg # of iterations =  8.6

     negative rho (up, down):  3.878E-04 4.019E-04
 
     Adding external electric field

     Computed dipole along edir(3) : 
        Dipole                0.0003 Ry au,          0.0007 Debye
        Dipole field          0.0000 Ry au
 
        Potential amp.       -0.0000 Ry
        Total length         34.5908 bohr
 
 
     Adding external electric field

     Computed dipole along edir(3) : 
        Dipole                0.0003 Ry au,          0.0007 Debye
        Dipole field          0.0000 Ry au
 
        Potential amp.       -0.0000 Ry
        Total length         34.5908 bohr
 
 
     Magnetic moment per site:
     atom:    1    charge:    3.9851    magn:    0.4313    constr:    0.0000
     atom:    2    charge:    3.9732    magn:    0.4208    constr:    0.0000
     atom:    3    charge:    3.9734    magn:    0.4204    constr:    0.0000
     atom:    4    charge:    3.9849    magn:    0.4317    constr:    0.0000
     atom:    5    charge:    3.9851    magn:    0.4309    constr:    0.0000
     atom:    6    charge:    3.9736    magn:    0.4203    constr:    0.0000
     atom:    7    charge:    3.9738    magn:    0.4201    constr:    0.0000
     atom:    8    charge:    3.9848    magn:    0.4313    constr:    0.0000
     atom:    9    charge:    3.9850    magn:    0.4317    constr:    0.0000
     atom:   10    charge:    3.9735    magn:    0.4206    constr:    0.0000
     atom:   11    charge:    3.9733    magn:    0.4206    constr:    0.0000
     atom:   12    charge:    3.9849    magn:    0.4313    constr:    0.0000
     atom:   13    charge:    3.9847    magn:    0.4312    constr:    0.0000
     atom:   14    charge:    3.9734    magn:    0.4197    constr:    0.0000
     atom:   15    charge:    3.9735    magn:    0.4202    constr:    0.0000
     atom:   16    charge:    3.9851    magn:    0.4302    constr:    0.0000
     atom:   17    charge:    3.9848    magn:    0.4309    constr:    0.0000
     atom:   18    charge:    3.9734    magn:    0.4198    constr:    0.0000
     atom:   19    charge:    3.9734    magn:    0.4201    constr:    0.0000
     atom:   20    charge:    3.9849    magn:    0.4307    constr:    0.0000
     atom:   21    charge:    3.9846    magn:    0.4313    constr:    0.0000
     atom:   22    charge:    3.9733    magn:    0.4199    constr:    0.0000
     atom:   23    charge:    3.9735    magn:    0.4200    constr:    0.0000
     atom:   24    charge:    3.9849    magn:    0.4307    constr:    0.0000
     atom:   25    charge:    3.9848    magn:    0.4309    constr:    0.0000
     atom:   26    charge:    3.9735    magn:    0.4199    constr:    0.0000
     atom:   27    charge:    3.9736    magn:    0.4197    constr:    0.0000
     atom:   28    charge:    3.9845    magn:    0.4312    constr:    0.0000
     atom:   29    charge:    3.9848    magn:    0.4308    constr:    0.0000
     atom:   30    charge:    3.9734    magn:    0.4198    constr:    0.0000
     atom:   31    charge:    3.9736    magn:    0.4195    constr:    0.0000
     atom:   32    charge:    3.9847    magn:    0.4308    constr:    0.0000
     atom:   33    charge:    3.9849    magn:    0.4309    constr:    0.0000
     atom:   34    charge:    3.9731    magn:    0.4201    constr:    0.0000
     atom:   35    charge:    3.9735    magn:    0.4198    constr:    0.0000
     atom:   36    charge:    3.9848    magn:    0.4309    constr:    0.0000

     total cpu time spent up to now is     1772.6 secs

     total energy              =   -3622.10179296 Ry
     Harris-Foulkes estimate   =   -3622.10330714 Ry
     estimated scf accuracy    <       0.01821688 Ry

     total magnetization       =    24.70 Bohr mag/cell
     absolute magnetization    =    28.93 Bohr mag/cell

     iteration # 15     ecut=    44.10 Ry     beta=0.10
     Davidson diagonalization with overlap
     c_bands:  1 eigenvalues not converged
     ethr =  5.06E-06,  avg # of iterations =  6.2

     negative rho (up, down):  3.809E-04 3.774E-04
 
     Adding external electric field

     Computed dipole along edir(3) : 
        Dipole               -0.0008 Ry au,         -0.0021 Debye
        Dipole field         -0.0000 Ry au
 
        Potential amp.        0.0001 Ry
        Total length         34.5908 bohr
 
 
     Adding external electric field

     Computed dipole along edir(3) : 
        Dipole               -0.0008 Ry au,         -0.0021 Debye
        Dipole field         -0.0000 Ry au
 
        Potential amp.        0.0001 Ry
        Total length         34.5908 bohr
 
 
     Magnetic moment per site:
     atom:    1    charge:    3.9851    magn:    0.4323    constr:    0.0000
     atom:    2    charge:    3.9735    magn:    0.4199    constr:    0.0000
     atom:    3    charge:    3.9735    magn:    0.4197    constr:    0.0000
     atom:    4    charge:    3.9855    magn:    0.4323    constr:    0.0000
     atom:    5    charge:    3.9850    magn:    0.4320    constr:    0.0000
     atom:    6    charge:    3.9733    magn:    0.4198    constr:    0.0000
     atom:    7    charge:    3.9733    magn:    0.4198    constr:    0.0000
     atom:    8    charge:    3.9853    magn:    0.4319    constr:    0.0000
     atom:    9    charge:    3.9851    magn:    0.4326    constr:    0.0000
     atom:   10    charge:    3.9734    magn:    0.4200    constr:    0.0000
     atom:   11    charge:    3.9736    magn:    0.4197    constr:    0.0000
     atom:   12    charge:    3.9854    magn:    0.4319    constr:    0.0000
     atom:   13    charge:    3.9855    magn:    0.4317    constr:    0.0000
     atom:   14    charge:    3.9734    magn:    0.4190    constr:    0.0000
     atom:   15    charge:    3.9735    magn:    0.4195    constr:    0.0000
     atom:   16    charge:    3.9851    magn:    0.4313    constr:    0.0000
     atom:   17    charge:    3.9854    magn:    0.4315    constr:    0.0000
     atom:   18    charge:    3.9734    magn:    0.4191    constr:    0.0000
     atom:   19    charge:    3.9735    magn:    0.4194    constr:    0.0000
     atom:   20    charge:    3.9851    magn:    0.4315    constr:    0.0000
     atom:   21    charge:    3.9854    magn:    0.4317    constr:    0.0000
     atom:   22    charge:    3.9735    magn:    0.4191    constr:    0.0000
     atom:   23    charge:    3.9735    magn:    0.4194    constr:    0.0000
     atom:   24    charge:    3.9852    magn:    0.4315    constr:    0.0000
     atom:   25    charge:    3.9854    magn:    0.4314    constr:    0.0000
     atom:   26    charge:    3.9734    magn:    0.4193    constr:    0.0000
     atom:   27    charge:    3.9734    magn:    0.4191    constr:    0.0000
     atom:   28    charge:    3.9854    magn:    0.4315    constr:    0.0000
     atom:   29    charge:    3.9853    magn:    0.4315    constr:    0.0000
     atom:   30    charge:    3.9734    magn:    0.4192    constr:    0.0000
     atom:   31    charge:    3.9733    magn:    0.4191    constr:    0.0000
     atom:   32    charge:    3.9853    magn:    0.4314    constr:    0.0000
     atom:   33    charge:    3.9854    magn:    0.4315    constr:    0.0000
     atom:   34    charge:    3.9736    magn:    0.4191    constr:    0.0000
     atom:   35    charge:    3.9734    magn:    0.4192    constr:    0.0000
     atom:   36    charge:    3.9854    magn:    0.4315    constr:    0.0000

     total cpu time spent up to now is     1906.1 secs

     total energy              =   -3622.10236704 Ry
     Harris-Foulkes estimate   =   -3622.10272219 Ry
     estimated scf accuracy    <       0.01007384 Ry

     total magnetization       =    24.59 Bohr mag/cell
     absolute magnetization    =    28.80 Bohr mag/cell

     iteration # 16     ecut=    44.10 Ry     beta=0.10
     Davidson diagonalization with overlap
     ethr =  2.80E-06,  avg # of iterations =  1.8

     negative rho (up, down):  3.787E-04 3.520E-04
 
     Adding external electric field

     Computed dipole along edir(3) : 
        Dipole                0.0132 Ry au,          0.0335 Debye
        Dipole field          0.0000 Ry au
 
        Potential amp.       -0.0011 Ry
        Total length         34.5908 bohr
 
 
     Adding external electric field

     Computed dipole along edir(3) : 
        Dipole                0.0132 Ry au,          0.0335 Debye
        Dipole field          0.0000 Ry au
 
        Potential amp.       -0.0011 Ry
        Total length         34.5908 bohr
 
 
     Magnetic moment per site:
     atom:    1    charge:    3.9855    magn:    0.4389    constr:    0.0000
     atom:    2    charge:    3.9727    magn:    0.4243    constr:    0.0000
     atom:    3    charge:    3.9725    magn:    0.4242    constr:    0.0000
     atom:    4    charge:    3.9852    magn:    0.4393    constr:    0.0000
     atom:    5    charge:    3.9857    magn:    0.4384    constr:    0.0000
     atom:    6    charge:    3.9725    magn:    0.4241    constr:    0.0000
     atom:    7    charge:    3.9723    magn:    0.4242    constr:    0.0000
     atom:    8    charge:    3.9857    magn:    0.4385    constr:    0.0000
     atom:    9    charge:    3.9856    magn:    0.4391    constr:    0.0000
     atom:   10    charge:    3.9726    magn:    0.4243    constr:    0.0000
     atom:   11    charge:    3.9725    magn:    0.4242    constr:    0.0000
     atom:   12    charge:    3.9853    magn:    0.4389    constr:    0.0000
     atom:   13    charge:    3.9854    magn:    0.4386    constr:    0.0000
     atom:   14    charge:    3.9727    magn:    0.4234    constr:    0.0000
     atom:   15    charge:    3.9724    magn:    0.4240    constr:    0.0000
     atom:   16    charge:    3.9854    magn:    0.4380    constr:    0.0000
     atom:   17    charge:    3.9854    magn:    0.4384    constr:    0.0000
     atom:   18    charge:    3.9726    magn:    0.4235    constr:    0.0000
     atom:   19    charge:    3.9725    magn:    0.4239    constr:    0.0000
     atom:   20    charge:    3.9856    magn:    0.4382    constr:    0.0000
     atom:   21    charge:    3.9857    magn:    0.4384    constr:    0.0000
     atom:   22    charge:    3.9727    magn:    0.4235    constr:    0.0000
     atom:   23    charge:    3.9725    magn:    0.4239    constr:    0.0000
     atom:   24    charge:    3.9853    magn:    0.4384    constr:    0.0000
     atom:   25    charge:    3.9856    magn:    0.4382    constr:    0.0000
     atom:   26    charge:    3.9725    magn:    0.4237    constr:    0.0000
     atom:   27    charge:    3.9725    magn:    0.4236    constr:    0.0000
     atom:   28    charge:    3.9855    magn:    0.4384    constr:    0.0000
     atom:   29    charge:    3.9857    magn:    0.4381    constr:    0.0000
     atom:   30    charge:    3.9727    magn:    0.4236    constr:    0.0000
     atom:   31    charge:    3.9725    magn:    0.4235    constr:    0.0000
     atom:   32    charge:    3.9855    magn:    0.4382    constr:    0.0000
     atom:   33    charge:    3.9855    magn:    0.4383    constr:    0.0000
     atom:   34    charge:    3.9727    magn:    0.4236    constr:    0.0000
     atom:   35    charge:    3.9725    magn:    0.4237    constr:    0.0000
     atom:   36    charge:    3.9851    magn:    0.4387    constr:    0.0000

     total cpu time spent up to now is     2016.7 secs

     total energy              =   -3622.10245722 Ry
     Harris-Foulkes estimate   =   -3622.10276541 Ry
     estimated scf accuracy    <       0.00811745 Ry

     total magnetization       =    24.60 Bohr mag/cell
     absolute magnetization    =    28.79 Bohr mag/cell

     iteration # 17     ecut=    44.10 Ry     beta=0.10
     Davidson diagonalization with overlap
     ethr =  2.25E-06,  avg # of iterations =  3.3

     negative rho (up, down):  3.729E-04 3.353E-04
 
     Adding external electric field

     Computed dipole along edir(3) : 
        Dipole               -0.0158 Ry au,         -0.0403 Debye
        Dipole field         -0.0000 Ry au
 
        Potential amp.        0.0013 Ry
        Total length         34.5908 bohr
 
 
     Adding external electric field

     Computed dipole along edir(3) : 
        Dipole               -0.0158 Ry au,         -0.0403 Debye
        Dipole field         -0.0000 Ry au
 
        Potential amp.        0.0013 Ry
        Total length         34.5908 bohr
 
 
     Magnetic moment per site:
     atom:    1    charge:    3.9853    magn:    0.4403    constr:    0.0000
     atom:    2    charge:    3.9724    magn:    0.4254    constr:    0.0000
     atom:    3    charge:    3.9724    magn:    0.4252    constr:    0.0000
     atom:    4    charge:    3.9855    magn:    0.4404    constr:    0.0000
     atom:    5    charge:    3.9855    magn:    0.4399    constr:    0.0000
     atom:    6    charge:    3.9723    magn:    0.4253    constr:    0.0000
     atom:    7    charge:    3.9722    magn:    0.4253    constr:    0.0000
     atom:    8    charge:    3.9858    magn:    0.4398    constr:    0.0000
     atom:    9    charge:    3.9854    magn:    0.4406    constr:    0.0000
     atom:   10    charge:    3.9723    magn:    0.4255    constr:    0.0000
     atom:   11    charge:    3.9724    magn:    0.4253    constr:    0.0000
     atom:   12    charge:    3.9855    magn:    0.4400    constr:    0.0000
     atom:   13    charge:    3.9852    magn:    0.4401    constr:    0.0000
     atom:   14    charge:    3.9724    magn:    0.4247    constr:    0.0000
     atom:   15    charge:    3.9723    magn:    0.4251    constr:    0.0000
     atom:   16    charge:    3.9856    magn:    0.4393    constr:    0.0000
     atom:   17    charge:    3.9853    magn:    0.4399    constr:    0.0000
     atom:   18    charge:    3.9723    magn:    0.4247    constr:    0.0000
     atom:   19    charge:    3.9724    magn:    0.4250    constr:    0.0000
     atom:   20    charge:    3.9857    magn:    0.4395    constr:    0.0000
     atom:   21    charge:    3.9854    magn:    0.4400    constr:    0.0000
     atom:   22    charge:    3.9724    magn:    0.4247    constr:    0.0000
     atom:   23    charge:    3.9724    magn:    0.4250    constr:    0.0000
     atom:   24    charge:    3.9855    magn:    0.4396    constr:    0.0000
     atom:   25    charge:    3.9853    magn:    0.4398    constr:    0.0000
     atom:   26    charge:    3.9723    magn:    0.4249    constr:    0.0000
     atom:   27    charge:    3.9723    magn:    0.4247    constr:    0.0000
     atom:   28    charge:    3.9856    magn:    0.4397    constr:    0.0000
     atom:   29    charge:    3.9854    magn:    0.4397    constr:    0.0000
     atom:   30    charge:    3.9724    magn:    0.4248    constr:    0.0000
     atom:   31    charge:    3.9723    magn:    0.4246    constr:    0.0000
     atom:   32    charge:    3.9856    magn:    0.4395    constr:    0.0000
     atom:   33    charge:    3.9853    magn:    0.4399    constr:    0.0000
     atom:   34    charge:    3.9725    magn:    0.4248    constr:    0.0000
     atom:   35    charge:    3.9723    magn:    0.4248    constr:    0.0000
     atom:   36    charge:    3.9853    magn:    0.4399    constr:    0.0000

     total cpu time spent up to now is     2133.4 secs

     total energy              =   -3622.10228783 Ry
     Harris-Foulkes estimate   =   -3622.10296030 Ry
     estimated scf accuracy    <       0.02202577 Ry

     total magnetization       =    24.73 Bohr mag/cell
     absolute magnetization    =    28.82 Bohr mag/cell

     iteration # 18     ecut=    44.10 Ry     beta=0.10
     Davidson diagonalization with overlap
     ethr =  2.25E-06,  avg # of iterations =  1.3

     negative rho (up, down):  3.759E-04 3.256E-04
 
     Adding external electric field

     Computed dipole along edir(3) : 
        Dipole                0.0018 Ry au,          0.0045 Debye
        Dipole field          0.0000 Ry au
 
        Potential amp.       -0.0002 Ry
        Total length         34.5908 bohr
 
 
     Adding external electric field

     Computed dipole along edir(3) : 
        Dipole                0.0018 Ry au,          0.0045 Debye
        Dipole field          0.0000 Ry au
 
        Potential amp.       -0.0002 Ry
        Total length         34.5908 bohr
 
 
     Magnetic moment per site:
     atom:    1    charge:    3.9859    magn:    0.4377    constr:    0.0000
     atom:    2    charge:    3.9715    magn:    0.4200    constr:    0.0000
     atom:    3    charge:    3.9715    magn:    0.4199    constr:    0.0000
     atom:    4    charge:    3.9859    magn:    0.4378    constr:    0.0000
     atom:    5    charge:    3.9858    magn:    0.4375    constr:    0.0000
     atom:    6    charge:    3.9715    magn:    0.4199    constr:    0.0000
     atom:    7    charge:    3.9715    magn:    0.4198    constr:    0.0000
     atom:    8    charge:    3.9856    magn:    0.4377    constr:    0.0000
     atom:    9    charge:    3.9857    magn:    0.4380    constr:    0.0000
     atom:   10    charge:    3.9716    magn:    0.4200    constr:    0.0000
     atom:   11    charge:    3.9715    magn:    0.4199    constr:    0.0000
     atom:   12    charge:    3.9860    magn:    0.4375    constr:    0.0000
     atom:   13    charge:    3.9858    magn:    0.4375    constr:    0.0000
     atom:   14    charge:    3.9714    magn:    0.4194    constr:    0.0000
     atom:   15    charge:    3.9715    magn:    0.4197    constr:    0.0000
     atom:   16    charge:    3.9857    magn:    0.4371    constr:    0.0000
     atom:   17    charge:    3.9858    magn:    0.4374    constr:    0.0000
     atom:   18    charge:    3.9714    magn:    0.4194    constr:    0.0000
     atom:   19    charge:    3.9714    magn:    0.4197    constr:    0.0000
     atom:   20    charge:    3.9855    magn:    0.4375    constr:    0.0000
     atom:   21    charge:    3.9857    magn:    0.4376    constr:    0.0000
     atom:   22    charge:    3.9715    magn:    0.4194    constr:    0.0000
     atom:   23    charge:    3.9714    magn:    0.4197    constr:    0.0000
     atom:   24    charge:    3.9857    magn:    0.4373    constr:    0.0000
     atom:   25    charge:    3.9858    magn:    0.4373    constr:    0.0000
     atom:   26    charge:    3.9715    magn:    0.4195    constr:    0.0000
     atom:   27    charge:    3.9714    magn:    0.4194    constr:    0.0000
     atom:   28    charge:    3.9857    magn:    0.4375    constr:    0.0000
     atom:   29    charge:    3.9855    magn:    0.4375    constr:    0.0000
     atom:   30    charge:    3.9714    magn:    0.4195    constr:    0.0000
     atom:   31    charge:    3.9714    magn:    0.4194    constr:    0.0000
     atom:   32    charge:    3.9856    magn:    0.4373    constr:    0.0000
     atom:   33    charge:    3.9858    magn:    0.4373    constr:    0.0000
     atom:   34    charge:    3.9714    magn:    0.4196    constr:    0.0000
     atom:   35    charge:    3.9714    magn:    0.4195    constr:    0.0000
     atom:   36    charge:    3.9859    magn:    0.4373    constr:    0.0000

     total cpu time spent up to now is     2241.9 secs

     total energy              =   -3622.10272666 Ry
     Harris-Foulkes estimate   =   -3622.10294564 Ry
     estimated scf accuracy    <       0.02358646 Ry

     total magnetization       =    24.75 Bohr mag/cell
     absolute magnetization    =    28.83 Bohr mag/cell

     iteration # 19     ecut=    44.10 Ry     beta=0.10
     Davidson diagonalization with overlap
[...]
     3.9220   4.0895   4.0898   4.1802   4.5013   5.0476   5.0479   5.0691
     5.1570   5.1574   5.3635   5.5300   5.7266   5.8016   5.8070   5.8071
     6.2198   6.2199   6.4041   6.5629   6.5855   6.5995   6.5996   6.6103
     6.6782   6.6782   6.8302   6.8303   7.0272   7.0272   7.0779   7.0780
     7.5800   7.5801   7.8811   7.8812   7.9311   7.9317   8.0087   8.0089
     8.0937   8.3125   8.3126   8.3588   8.4697   8.6418   8.6421   8.8459
     8.8793   8.8995   9.0160   9.0160   9.1673   9.5051   9.5329   9.5330
     9.5363   9.7870   9.7871   9.8017   9.8018   9.9185   9.9185   9.9752

 ------ SPIN DOWN ----------


          k = 0.0000 0.0000 0.0000 ( 50455 PWs)   bands (ev):

    -7.3706  -6.0771  -6.0759  -4.9288  -4.9277  -4.6438  -4.0334  -4.0324
    -4.0322  -4.0314  -3.8743  -3.8737  -3.5166  -3.5164  -3.2716  -3.2713
    -3.0858  -2.9444  -2.9441  -2.7492  -2.7492  -2.7480  -2.7476  -2.5166
    -2.5158  -2.5155  -2.5150  -2.4730  -2.4268  -2.4235  -2.4132  -2.4097
    -2.4087  -2.2981  -2.2977  -2.2618  -2.2614  -2.2600  -2.2597  -2.1291
    -2.1286  -2.0814  -2.0803  -1.9436  -1.9430  -1.9428  -1.9427  -1.8595
    -1.8593  -1.8592  -1.8591  -1.7859  -1.7266  -1.7249  -1.5926  -1.5925
    -1.5924  -1.5923  -1.5184  -1.4225  -1.4223  -1.4117  -1.4097  -1.3940
    -1.3585  -1.3585  -1.3350  -1.3347  -1.3346  -1.3345  -1.2967  -1.2961
    -1.2554  -1.2552  -1.1676  -1.1672  -1.1668  -1.1666  -1.0069  -1.0061
    -1.0058  -1.0053  -0.9641  -0.9638  -0.9637  -0.9635  -0.9556  -0.9245
    -0.9241  -0.9001  -0.8996  -0.8974  -0.8923  -0.8725  -0.8722  -0.7906
    -0.7901  -0.7242  -0.6489  -0.6488  -0.6327  -0.6326  -0.6322  -0.6320
    -0.5911  -0.5906  -0.5534  -0.5533  -0.4969  -0.4968  -0.4608  -0.4607
    -0.4603  -0.4598  -0.3523  -0.3523  -0.3522  -0.3520  -0.3389  -0.3388
    -0.3323  -0.3088  -0.3082  -0.2530  -0.2099  -0.1515  -0.1506  -0.1410
    -0.1141  -0.1140  -0.1133  -0.1131   0.0066   0.0071   0.0153   0.0163
     0.0328   0.0336   0.0978   0.1223   0.1224   0.1256   0.1258   0.1261
     0.1262   0.1577   0.1578   0.1583   0.1584   0.2043   0.2672   0.2678
     0.2976   0.2977   0.3027   0.3028   0.3550   0.3555   0.3556   0.3562
     0.3565   0.3632   0.3637   0.4432   0.4433   0.4689   0.4690   0.4691
     0.4692   0.4840   0.4841   0.4983   0.4984   0.4986   0.4987   0.5041
     0.5047   0.5270   0.5514   0.5515   0.5516   0.5518   0.5567   0.6122
     0.6123   0.6475   0.6481   0.6511   0.6513   0.7541   0.7542   0.8089
     0.8089   0.8524   0.8834   0.9845   0.9853   1.3891   1.3892   1.9803
     1.9806   1.9811   1.9813   2.8291   2.8292   3.0181   3.0184   3.2178
     3.2789   3.2790   3.2798   3.2801   3.5877   3.5884   4.2218   4.3410
     4.3411   4.3412   4.3415   4.5024   5.2392   5.2531   5.2542   5.4872
     5.5201   5.5201   5.7778   5.7780   5.7780   5.7781   5.9661   5.9662
     6.3263   6.3271   6.7090   6.7093   6.7095   6.7096   6.7282   6.7283
     6.7709   6.7710   7.4118   7.4120   7.6695   7.6699   7.8217   7.9182
     7.9185   8.0091   8.0097   8.0102   8.0103   8.1029   8.1030   8.1030
     8.1030   8.1082   8.1972   8.5988   8.5989   8.5990   8.5990   8.7475
     8.7479   8.7956   8.7977   8.8007   8.8008   9.1305   9.1306   9.1308
     9.1311   9.2570   9.2570   9.5544   9.5545   9.5871   9.5872   9.5875

          k = 0.0000 0.0541 0.0000 ( 50496 PWs)   bands (ev):

    -6.9184  -6.4841  -6.0573  -5.6529  -4.9200  -4.2788  -4.2378  -4.0108
    -3.9941  -3.6705  -3.6462  -3.4949  -3.4491  -3.3625  -3.2432  -3.1874
    -3.1596  -3.0441  -2.9970  -2.9728  -2.9662  -2.9320  -2.6901  -2.6712
    -2.6672  -2.5726  -2.5609  -2.5423  -2.5401  -2.5240  -2.4686  -2.3334
    -2.3246  -2.2904  -2.2728  -2.2503  -2.1903  -2.1889  -2.1843  -2.0988
    -2.0688  -2.0645  -2.0509  -2.0013  -1.9968  -1.9304  -1.8396  -1.8333
    -1.8311  -1.8268  -1.8180  -1.7867  -1.7177  -1.6601  -1.6578  -1.6471
    -1.6340  -1.6048  -1.5696  -1.5577  -1.5572  -1.5072  -1.4967  -1.4539
    -1.3856  -1.3615  -1.3560  -1.3153  -1.3078  -1.2901  -1.2897  -1.2695
    -1.2471  -1.2126  -1.2004  -1.1499  -1.1494  -1.1470  -1.1015  -1.0980
    -1.0866  -1.0663  -1.0582  -1.0549  -1.0346  -1.0087  -0.9711  -0.9628
    -0.9215  -0.9211  -0.9098  -0.8975  -0.8835  -0.8688  -0.8532  -0.8180
    -0.8105  -0.7664  -0.7493  -0.7138  -0.7021  -0.6262  -0.6253  -0.5918
    -0.5863  -0.5684  -0.5660  -0.5493  -0.5421  -0.5349  -0.4693  -0.4551
    -0.4183  -0.4009  -0.3951  -0.3706  -0.3699  -0.3613  -0.3572  -0.3271
    -0.3165  -0.3144  -0.2939  -0.2858  -0.2815  -0.2755  -0.2369  -0.2109
    -0.2104  -0.1410  -0.1400  -0.0925  -0.0841  -0.0729  -0.0544  -0.0350
    -0.0315   0.0576   0.0676   0.0756   0.0953   0.0963   0.1516   0.1661
     0.1666   0.1672   0.1689   0.1790   0.2459   0.2553   0.2583   0.2621
     0.2643   0.2860   0.3261   0.3315   0.3458   0.3591   0.3822   0.3870
     0.4060   0.4091   0.4164   0.4198   0.4292   0.4317   0.4375   0.4593
     0.4596   0.4647   0.4903   0.4953   0.5074   0.5422   0.6101   0.6173
     0.6204   0.6242   0.6344   0.6474   0.6609   0.6881   0.6950   0.7082
     0.7086   0.7187   0.7208   0.7371   0.7583   0.7597   0.7836   1.1785
     1.2144   1.2612   1.3153   1.3733   1.4966   1.5139   1.9399   1.9642
     1.9734   2.0383   2.2046   2.4252   2.6561   2.7481   2.8313   2.9039
     3.1861   3.2373   3.5840   3.6189   3.7793   3.8438   3.8639   3.9591
     4.2724   4.4255   4.4859   4.4861   4.6516   4.7864   4.8508   4.9677
     5.2001   5.3183   5.5145   5.5950   5.6667   5.8936   5.9338   5.9968
     6.0678   6.1570   6.3801   6.4985   6.5558   6.5594   6.7402   6.7802
     6.7902   6.9179   6.9298   7.1199   7.1954   7.2971   7.2979   7.4254
     7.5502   7.6698   7.7884   7.9577   8.0007   8.0773   8.1367   8.1769
     8.1774   8.2257   8.3522   8.3993   8.5654   8.6509   8.8817   8.9539
     8.9678   9.0046   9.0217   9.0410   9.0627   9.0795   9.1968   9.3281
     9.4105   9.4139   9.4371   9.4578   9.5349   9.6315   9.6680   9.8531

          k = 0.0255 0.0180 0.0000 ( 50428 PWs)   bands (ev):

    -7.2206  -6.7791  -5.1825  -4.8162  -4.8151  -4.5402  -4.4972  -4.4963
    -4.2555  -4.2490  -3.5266  -3.5256  -3.4817  -3.1847  -3.1835  -3.1763
    -3.1760  -3.0948  -3.0744  -3.0734  -2.9138  -2.9135  -2.7217  -2.5167
    -2.5150  -2.5123  -2.4681  -2.4651  -2.4227  -2.3626  -2.3618  -2.3604
    -2.3597  -2.2830  -2.2447  -2.2442  -2.1832  -2.1827  -2.0741  -2.0734
    -2.0643  -2.0638  -2.0617  -2.0600  -1.9684  -1.9676  -1.9440  -1.9437
    -1.8539  -1.8537  -1.8526  -1.7727  -1.7718  -1.7572  -1.7569  -1.7261
    -1.6005  -1.5718  -1.5047  -1.5039  -1.4801  -1.3992  -1.3981  -1.3978
    -1.3840  -1.3837  -1.3380  -1.3379  -1.2965  -1.2813  -1.2549  -1.2545
    -1.2141  -1.2137  -1.1950  -1.1889  -1.1621  -1.1616  -1.1447  -1.1442
    -0.9475  -0.9453  -0.9199  -0.9098  -0.9049  -0.8980  -0.8878  -0.8870
    -0.8657  -0.8647  -0.8528  -0.8443  -0.8438  -0.8197  -0.7712  -0.7709
    -0.7705  -0.7610  -0.7602  -0.7461  -0.7457  -0.6655  -0.6442  -0.6440
    -0.6331  -0.6092  -0.6088  -0.5319  -0.5317  -0.4875  -0.4763  -0.4763
    -0.4080  -0.4070  -0.3913  -0.3902  -0.3228  -0.3227  -0.3204  -0.3041
    -0.2949  -0.2949  -0.2934  -0.2851  -0.2442  -0.2392  -0.1705  -0.1701
    -0.1643  -0.1622  -0.1612  -0.1075  -0.0602  -0.0592  -0.0326  -0.0319
    -0.0247   0.0776   0.1115   0.1120   0.1532   0.1535   0.1716   0.1720
     0.1901   0.1903   0.2016   0.2023   0.2205   0.2208   0.2547   0.2780
     0.2784   0.2785   0.2885   0.3101   0.3241   0.3247   0.3752   0.3763
     0.3931   0.3934   0.4145   0.4151   0.4309   0.4314   0.4540   0.4553
     0.4554   0.4726   0.4733   0.4743   0.4942   0.4944   0.5014   0.5232
     0.5233   0.5472   0.5569   0.5830   0.5831   0.6351   0.6365   0.6367
     0.6439   0.7120   0.7316   0.7423   0.7424   0.7433   0.8148   0.8158
     0.8203   0.9237   0.9478   0.9484   1.0787   1.2032   1.3331   1.3341
     1.8156   1.8166   2.1622   2.4388   3.0007   3.0009   3.0602   3.0603
     3.1297   3.2707   3.4961   3.6339   3.6340   3.6828   4.0165   4.0168
     4.3616   4.6143   4.7414   4.7428   4.9077   5.3483   5.3496   5.3587
     5.6027   5.6275   5.6279   5.6791   6.1080   6.1749   6.1749   6.2612
     6.2616   6.3138   6.4827   6.5543   6.5547   6.7808   6.8823   6.8823
     7.2732   7.2734   7.2795   7.4282   7.4293   7.4873   7.4875   7.7053
     7.7244   7.7257   7.8247   7.8252   7.8670   7.8935   7.9230   8.0838
     8.0840   8.1364   8.3714   8.3717   8.3758   8.4665   8.4666   8.5225
     8.5228   8.8048   8.8146   8.8147   8.9262   8.9267   9.0947   9.1204
     9.1205   9.1360   9.2679   9.3659   9.3663   9.5950   9.5954   9.6412

          k = 0.0255 0.0721 0.0000 ( 50496 PWs)   bands (ev):

    -6.9184  -6.4841  -6.0573  -5.6529  -4.9200  -4.2788  -4.2378  -4.0108
    -3.9941  -3.6705  -3.6462  -3.4949  -3.4491  -3.3625  -3.2432  -3.1874
    -3.1596  -3.0441  -2.9970  -2.9728  -2.9662  -2.9320  -2.6901  -2.6712
    -2.6672  -2.5726  -2.5609  -2.5423  -2.5401  -2.5240  -2.4686  -2.3334
    -2.3246  -2.2904  -2.2728  -2.2503  -2.1903  -2.1889  -2.1843  -2.0988
    -2.0688  -2.0645  -2.0509  -2.0013  -1.9968  -1.9304  -1.8396  -1.8333
    -1.8311  -1.8268  -1.8180  -1.7867  -1.7177  -1.6601  -1.6578  -1.6471
    -1.6340  -1.6048  -1.5696  -1.5577  -1.5572  -1.5072  -1.4967  -1.4539
    -1.3856  -1.3615  -1.3560  -1.3153  -1.3078  -1.2901  -1.2897  -1.2695
    -1.2471  -1.2126  -1.2004  -1.1499  -1.1494  -1.1470  -1.1015  -1.0980
    -1.0866  -1.0663  -1.0582  -1.0549  -1.0346  -1.0087  -0.9711  -0.9628
    -0.9215  -0.9211  -0.9098  -0.8975  -0.8835  -0.8688  -0.8532  -0.8180
    -0.8105  -0.7664  -0.7493  -0.7138  -0.7021  -0.6262  -0.6253  -0.5918
    -0.5863  -0.5684  -0.5660  -0.5493  -0.5421  -0.5349  -0.4693  -0.4551
    -0.4183  -0.4009  -0.3951  -0.3706  -0.3699  -0.3613  -0.3572  -0.3271
    -0.3165  -0.3144  -0.2939  -0.2858  -0.2815  -0.2755  -0.2369  -0.2109
    -0.2104  -0.1410  -0.1400  -0.0925  -0.0841  -0.0729  -0.0544  -0.0350
    -0.0315   0.0576   0.0676   0.0756   0.0953   0.0963   0.1516   0.1661
     0.1666   0.1672   0.1689   0.1790   0.2459   0.2553   0.2583   0.2621
     0.2643   0.2860   0.3261   0.3315   0.3458   0.3591   0.3822   0.3870
     0.4060   0.4091   0.4164   0.4198   0.4292   0.4317   0.4375   0.4593
     0.4596   0.4646   0.4903   0.4953   0.5074   0.5422   0.6101   0.6173
     0.6204   0.6242   0.6344   0.6474   0.6609   0.6881   0.6950   0.7082
     0.7086   0.7187   0.7208   0.7371   0.7583   0.7597   0.7836   1.1785
     1.2144   1.2612   1.3153   1.3733   1.4966   1.5139   1.9399   1.9642
     1.9734   2.0383   2.2046   2.4252   2.6561   2.7481   2.8313   2.9039
     3.1861   3.2373   3.5840   3.6189   3.7793   3.8438   3.8639   3.9591
     4.2724   4.4255   4.4859   4.4861   4.6516   4.7864   4.8508   4.9677
     5.2001   5.3183   5.5145   5.5950   5.6667   5.8936   5.9338   5.9968
     6.0678   6.1570   6.3801   6.4985   6.5558   6.5594   6.7402   6.7802
     6.7902   6.9179   6.9298   7.1199   7.1954   7.2971   7.2979   7.4254
     7.5502   7.6698   7.7884   7.9577   8.0007   8.0773   8.1367   8.1769
     8.1774   8.2257   8.3522   8.3993   8.5655   8.6509   8.8817   8.9539
     8.9678   9.0046   9.0217   9.0410   9.0627   9.0795   9.1968   9.3281
     9.4105   9.4139   9.4371   9.4578   9.5349   9.6315   9.6680   9.8531

          k = 0.0255-0.0361 0.0000 ( 50488 PWs)   bands (ev):

    -7.0662  -6.1957  -5.7950  -5.7938  -5.0205  -5.0193  -4.3827  -3.7500
    -3.7416  -3.6159  -3.6153  -3.3143  -3.3135  -3.3072  -3.3071  -3.2381
    -2.9955  -2.9945  -2.9364  -2.9361  -2.9324  -2.8400  -2.8397  -2.7416
    -2.7414  -2.6318  -2.5662  -2.5526  -2.5516  -2.5028  -2.4230  -2.4228
    -2.3891  -2.3592  -2.3447  -2.3445  -2.1707  -2.1676  -2.0878  -2.0704
    -2.0503  -2.0232  -2.0221  -1.9897  -1.9883  -1.9638  -1.9631  -1.9452
    -1.8994  -1.8987  -1.8795  -1.6945  -1.6586  -1.6580  -1.6159  -1.5741
    -1.5044  -1.5039  -1.5018  -1.5017  -1.4857  -1.4395  -1.4057  -1.3782
    -1.3779  -1.3711  -1.3710  -1.3694  -1.3692  -1.3540  -1.3539  -1.3370
    -1.3368  -1.3116  -1.3114  -1.1492  -1.1429  -1.1426  -1.0951  -1.0278
    -1.0276  -1.0275  -1.0113  -1.0106  -1.0058  -1.0053  -0.9857  -0.9619
    -0.9346  -0.9343  -0.9009  -0.9008  -0.8930  -0.8372  -0.7965  -0.7962
    -0.7855  -0.7802  -0.7798  -0.7217  -0.7214  -0.6798  -0.6795  -0.6488
    -0.6442  -0.6441  -0.6108  -0.6104  -0.5732  -0.5731  -0.5248  -0.5248
    -0.4535  -0.4533  -0.4084  -0.3898  -0.3893  -0.3844  -0.3595  -0.3592
    -0.3426  -0.3164  -0.2847  -0.2649  -0.2195  -0.2193  -0.1947  -0.1946
    -0.1212  -0.1209  -0.1148  -0.1148  -0.0846  -0.0691  -0.0404  -0.0086
     0.0346   0.0346   0.0418   0.1191   0.1384   0.1384   0.1692   0.1693
     0.1942   0.2039   0.2098   0.2127   0.2128   0.2446   0.2447   0.2485
     0.2624   0.2626   0.2964   0.3392   0.3613   0.3613   0.3622   0.3626
     0.3653   0.3656   0.3888   0.4210   0.4277   0.4605   0.4606   0.4886
     0.5100   0.5103   0.5137   0.5138   0.5167   0.5169   0.5366   0.5382
     0.5447   0.5796   0.5797   0.6331   0.6952   0.6962   0.6963   0.7139
     0.7141   0.7157   0.7160   0.7270   0.7700   0.8258   1.1171   1.2050
     1.2052   1.2559   1.2560   1.3925   1.5370   1.5375   1.7274   1.7867
     2.0089   2.0091   2.4130   2.4132   2.8266   2.8267   3.0873   3.0875
     3.1519   3.3617   3.3620   3.4835   3.4951   3.6177   3.6182   4.0313
     4.0318   4.2944   4.3058   4.3060   4.5097   5.1609   5.1718   5.1721
     5.2580   5.2584   5.3685   5.5430   5.7685   5.8103   5.8103   6.0408
     6.2571   6.2572   6.4164   6.5973   6.6798   6.6799   6.7271   6.7551
     6.9016   6.9016   7.0392   7.0392   7.0568   7.0568   7.1209   7.1210
     7.6435   7.6436   7.9083   7.9083   8.1184   8.1190   8.1217   8.1940
     8.1942   8.3545   8.3546   8.4014   8.5752   8.8200   8.8203   8.8764
     8.8909   8.9374   9.0665   9.0665   9.2068   9.5483   9.5484   9.6296
     9.6474   9.8249   9.8250   9.8550   9.8551   9.9374   9.9375  10.0073

     the Fermi energy is     0.4722 ev

!    total energy              =   -3622.12075566 Ry
     Harris-Foulkes estimate   =   -3622.12075565 Ry
     estimated scf accuracy    <       0.00000040 Ry

     The total energy is the sum of the following terms:

     one-electron contribution =  -18777.59436467 Ry
     hartree contribution      =    9766.11379892 Ry
     xc contribution           =   -1505.00269273 Ry
     ewald contribution        =    6894.55096314 Ry
     electric field correction =       0.00000114 Ry
     smearing contrib. (-TS)   =      -0.18846146 Ry

     total magnetization       =    24.38 Bohr mag/cell
     absolute magnetization    =    28.09 Bohr mag/cell

     convergence has been achieved in  22 iterations

     Forces acting on atoms (Ry/au):


     negative rho (up, down):  4.136E-04 3.111E-04
     atom    1 type  1   force =     0.00004601    0.00001778    0.01927405
     atom    2 type  1   force =     0.00004614   -0.00011764   -0.01976991
     atom    3 type  1   force =     0.00015971    0.00051807    0.00055855
     atom    4 type  1   force =    -0.00026889    0.00017624    0.00016924
     atom    5 type  1   force =    -0.00003283    0.00011731    0.01929505
     atom    6 type  1   force =    -0.00009491    0.00004622   -0.01957193
     atom    7 type  1   force =     0.00053041   -0.00025126    0.00038478
     atom    8 type  1   force =    -0.00009068   -0.00020605   -0.00010828
     atom    9 type  1   force =     0.00007427   -0.00007418    0.01935969
     atom   10 type  1   force =    -0.00008759   -0.00002448   -0.01997306
     atom   11 type  1   force =     0.00004064    0.00024961    0.00013078
     atom   12 type  1   force =    -0.00004773   -0.00025873    0.00037409
     atom   13 type  1   force =    -0.00000793   -0.00005865    0.01930399
     atom   14 type  1   force =    -0.00005183    0.00018781   -0.02011558
     atom   15 type  1   force =    -0.00024937    0.00023900    0.00010010
     atom   16 type  1   force =     0.00004179    0.00026067    0.00049456
     atom   17 type  1   force =    -0.00002057   -0.00009103    0.01928766
     atom   18 type  1   force =     0.00017321   -0.00015606   -0.01989474
     atom   19 type  1   force =    -0.00045675   -0.00008959    0.00035559
     atom   20 type  1   force =     0.00014430    0.00002737    0.00025698
     atom   21 type  1   force =    -0.00013806    0.00003153    0.01929703
     atom   22 type  1   force =    -0.00002694    0.00003555   -0.01984937
     atom   23 type  1   force =    -0.00005468   -0.00068640    0.00015021
     atom   24 type  1   force =     0.00014217   -0.00005605    0.00023053
     atom   25 type  1   force =    -0.00004887    0.00016053    0.01925450
     atom   26 type  1   force =    -0.00002809    0.00013601   -0.01981764
     atom   27 type  1   force =     0.00027832   -0.00014721    0.00027617
     atom   28 type  1   force =     0.00007680    0.00009280    0.00031692
     atom   29 type  1   force =     0.00004691   -0.00002947    0.01929827
     atom   30 type  1   force =    -0.00003608    0.00009106   -0.02009610
     atom   31 type  1   force =    -0.00023010    0.00011249    0.00018285
     atom   32 type  1   force =     0.00006130   -0.00006548    0.00061927
     atom   33 type  1   force =     0.00007884   -0.00007574    0.01925247
     atom   34 type  1   force =     0.00011441   -0.00019238   -0.01994821
     atom   35 type  1   force =    -0.00004516    0.00003744    0.00043001
     atom   36 type  1   force =    -0.00003818    0.00004290    0.00049147

     Total force =     0.083161     Total SCF correction =     0.002002
 !ASE

     Writing output data file calc.save
 
     init_run     :     43.15s CPU     49.73s WALL (       1 calls)
     electrons    :  16278.99s CPU  18846.76s WALL (       5 calls)
     update_pot   :      9.88s CPU     10.75s WALL (       4 calls)
     forces       :    329.66s CPU    345.77s WALL (       5 calls)

     Called by init_run:
     wfcinit      :     27.09s CPU     32.76s WALL (       1 calls)
     potinit      :      1.15s CPU      1.30s WALL (       1 calls)

     Called by electrons:
     c_bands      :   9953.56s CPU  11879.06s WALL (     164 calls)
     sum_band     :   4281.27s CPU   4788.96s WALL (     164 calls)
     v_of_rho     :     98.06s CPU    113.64s WALL (     169 calls)
     newd         :   1976.22s CPU   2092.42s WALL (     169 calls)
     mix_rho      :     19.95s CPU     23.76s WALL (     164 calls)

     Called by c_bands:
     init_us_2    :     53.00s CPU     56.49s WALL (    3340 calls)
     cegterg      :   9643.07s CPU  11555.53s WALL (    1640 calls)

     Called by *egterg:
     h_psi        :   5712.64s CPU   7282.50s WALL (    4273 calls)
     s_psi        :    786.87s CPU    817.12s WALL (    4273 calls)
     g_psi        :     19.93s CPU     20.50s WALL (    2623 calls)
     cdiaghg      :   1085.86s CPU   1114.77s WALL (    4223 calls)

     Called by h_psi:
     add_vuspsi   :    795.85s CPU    822.06s WALL (    4273 calls)

     General routines
     calbec       :   1199.24s CPU   1233.03s WALL (    5963 calls)
     fft          :    134.09s CPU    151.18s WALL (    5284 calls)
     ffts         :      1.31s CPU      1.79s WALL (     666 calls)
     fftw         :   3063.03s CPU   4881.54s WALL ( 2408048 calls)
     interpolate  :     11.95s CPU     16.82s WALL (     666 calls)
     davcio       :      0.04s CPU      1.22s WALL (      10 calls)
 
     Parallel routines
     fft_scatter  :   1726.16s CPU   2880.05s WALL ( 2413998 calls)
 
     PWSCF        :     4h38m CPU        5h21m WALL

 
   This run was terminated on:  17: 5: 0  20Feb2018            

=------------------------------------------------------------------------------=
   JOB DONE.
=------------------------------------------------------------------------------=
