  python dir          : /home/vossj/suncat/lib/python2.7/site-packages/espresso
  espresso dir        : /home/vossj/suncat/esdld/espresso-dynpy-beef/bin
  pseudo dir          : /home/alatimer/bin/psp/esp_psp_w_gbrvRu/
  ase-espresso py git : ffa2778-git



     Program PWSCF v.5.1rc2 (svn rev. ) starts on 18Mar2017 at 15:43:52 

     This program is part of the open-source Quantum ESPRESSO suite
     for quantum simulation of materials; please cite
         "P. Giannozzi et al., J. Phys.:Condens. Matter 21 395502 (2009);
          URL http://www.quantum-espresso.org", 
     in publications or presentations arising from this work. More details at
     http://www.quantum-espresso.org/quote

     Parallel version (MPI), running on    16 processors
     R & G space division:  proc/nbgrp/npool/nimage =      16
     Reading input from pw.inp
     Message from routine read_cards :
     DEPRECATED: no units specified in CELL_PARAMETERS card

     Current dimensions of program PWSCF are:
     Max number of different atomic species (ntypx) = 10
     Max number of k-points (npk) =  40000
     Max angular momentum in pseudopotentials (lmaxx) =  3
     Presently no symmetry can be used with electric field


     IMPORTANT: XC functional enforced from input :
     Exchange-correlation      = RPBE ( 1  4 28  4 0)
     Any further DFT definition will be discarded
     Please, verify this is what you really want

               file Ni.UPF: wavefunction(s)  3D renormalized

     Subspace diagonalization in iterative solution of the eigenvalue problem:
     a serial algorithm will be used

 
     Parallelization info
     --------------------
     sticks:   dense  smooth     PW     G-vecs:    dense   smooth      PW
     Min         386     154     42                68872    17389    2480
     Max         387     155     43                68885    17439    2491
     Sum        6181    2479    673              1102011   278611   39737
 
     Generating pointlists ...
     new r_m :   0.4125 (alat units)  0.7795 (a.u.) for type    1
     new r_m :   0.4125 (alat units)  0.7795 (a.u.) for type    2


     bravais-lattice index     =            0
     lattice parameter (alat)  =       1.8897  a.u.
     unit-cell volume          =    7046.4111 (a.u.)^3
     number of atoms/cell      =           45
     number of atomic types    =            2
     number of electrons       =       414.00
     number of Kohn-Sham states=          307
     kinetic-energy cutoff     =      44.0992  Ry
     charge density cutoff     =     440.9919  Ry
     convergence threshold     =      7.3E-07
     mixing beta               =       0.1000
     number of iterations used =           10  plain     mixing
     Exchange-correlation      = RPBE ( 1  4 28  4 0)
     nstep                     =           50


     celldm(1)=   1.889726  celldm(2)=   0.000000  celldm(3)=   0.000000
     celldm(4)=   0.000000  celldm(5)=   0.000000  celldm(6)=   0.000000

     crystal axes: (cart. coord. in units of alat)
               a(1) = (   7.548011   0.000000   0.000000 )  
               a(2) = (  -3.774005   6.536769   0.000000 )  
               a(3) = (   0.000000   0.000000  21.162925 )  

     reciprocal axes: (cart. coord. in units 2 pi/alat)
               b(1) = (  0.132485  0.076490  0.000000 )  
               b(2) = (  0.000000  0.152981  0.000000 )  
               b(3) = (  0.000000  0.000000  0.047252 )  


     PseudoPot. # 1 for Ni read from file:
     /home/alatimer/bin/psp/esp_psp_w_gbrvRu/Ni.UPF
     MD5 check sum: 8b2449ee0060d9c33484ccd47bb60870
     Pseudo is Ultrasoft + core correction, Zval = 10.0
     Generated using "atomic" code by A. Dal Corso  v.5.0.2 svn rev. 9415
     Using radial grid of 1195 points,  6 beta functions with: 
                l(1) =   0
                l(2) =   0
                l(3) =   1
                l(4) =   1
                l(5) =   2
                l(6) =   2
     Q(r) pseudized with 0 coefficients 


     PseudoPot. # 2 for  O read from file:
     /home/alatimer/bin/psp/esp_psp_w_gbrvRu/O.UPF
     MD5 check sum: e057bbcf3229fb5d8c36c0c92f9568b4
     Pseudo is Ultrasoft + core correction, Zval =  6.0
     Generated using "atomic" code by A. Dal Corso  v.5.0.2 svn rev. 9415
     Using radial grid of 1095 points,  4 beta functions with: 
                l(1) =   0
                l(2) =   0
                l(3) =   1
                l(4) =   1
     Q(r) pseudized with 0 coefficients 


     atomic species   valence    mass     pseudopotential
        Ni1           10.00    58.69340     Ni( 1.00)
        O1             6.00    15.99940      O( 1.00)

     Starting magnetic structure 
     atomic species   magnetization
        Ni1          0.300
        O1           0.500

     No symmetry found



   Cartesian axes

     site n.     atom                  positions (alat units)
         1           Ni1 tau(   1) = (   0.0000000   0.0000000   7.5000000  )
         2           Ni1 tau(   2) = (   1.2580018   0.7263077   9.5543084  )
         3           Ni1 tau(   3) = (   0.0000000   1.4526154  11.6086168  )
         4           Ni1 tau(   4) = (   1.2580018   2.1789231  13.6629252  )
         5           Ni1 tau(   5) = (  -1.2580018   2.1789231   7.5000000  )
         6           Ni1 tau(   6) = (   0.0000000   2.9052308   9.5543084  )
         7           Ni1 tau(   7) = (  -1.2580018   3.6315385  11.6086168  )
         8           Ni1 tau(   8) = (  -0.0000000   4.3578462  13.6629252  )
         9           Ni1 tau(   9) = (  -2.5160037   4.3578462   7.5000000  )
        10           Ni1 tau(  10) = (  -1.2580018   5.0841539   9.5543084  )
        11           Ni1 tau(  11) = (  -2.5160037   5.8104616  11.6086168  )
        12           Ni1 tau(  12) = (  -1.2580018   6.5367693  13.6629252  )
        13           Ni1 tau(  13) = (   2.5160037   0.0000000   7.5000000  )
        14           Ni1 tau(  14) = (   3.7740055   0.7263077   9.5543084  )
        15           Ni1 tau(  15) = (   2.5160037   1.4526154  11.6086168  )
        16           Ni1 tau(  16) = (   3.7740055   2.1789231  13.6629252  )
        17           Ni1 tau(  17) = (   1.2580018   2.1789231   7.5000000  )
        18           Ni1 tau(  18) = (   2.5160037   2.9052308   9.5543084  )
        19           Ni1 tau(  19) = (   1.2580018   3.6315385  11.6086168  )
        20           Ni1 tau(  20) = (   2.5160037   4.3578462  13.6629252  )
        21           Ni1 tau(  21) = (  -0.0000000   4.3578462   7.5000000  )
        22           Ni1 tau(  22) = (   1.2580018   5.0841539   9.5543084  )
        23           Ni1 tau(  23) = (  -0.0000000   5.8104616  11.6086168  )
        24           Ni1 tau(  24) = (   1.2580018   6.5367693  13.6629252  )
        25           Ni1 tau(  25) = (   5.0320073   0.0000000   7.5000000  )
        26           Ni1 tau(  26) = (   6.2900092   0.7263077   9.5543084  )
        27           Ni1 tau(  27) = (   5.0320073   1.4526154  11.6086168  )
        28           Ni1 tau(  28) = (   6.2900092   2.1789231  13.6629252  )
        29           Ni1 tau(  29) = (   3.7740055   2.1789231   7.5000000  )
        30           Ni1 tau(  30) = (   5.0320073   2.9052308   9.5543084  )
        31           Ni1 tau(  31) = (   3.7740055   3.6315385  11.6086168  )
        32           Ni1 tau(  32) = (   5.0320073   4.3578462  13.6629252  )
        33           Ni1 tau(  33) = (   2.5160037   4.3578462   7.5000000  )
        34           Ni1 tau(  34) = (   3.7740055   5.0841539   9.5543084  )
        35           Ni1 tau(  35) = (   2.5160037   5.8104616  11.6086168  )
        36           Ni1 tau(  36) = (   3.7740055   6.5367693  13.6629252  )
        37           O1  tau(  37) = (   3.7935804   5.2277866  14.8463543  )
        38           O1  tau(  38) = (   1.3203265   5.1554212  14.8463543  )
        39           O1  tau(  39) = (   3.7363302   0.7975750  14.8463543  )
        40           O1  tau(  40) = (   6.2523338   0.7975750  14.8463543  )
        41           O1  tau(  41) = (   1.2203265   0.7975750  14.8463543  )
        42           O1  tau(  42) = (  -1.2956772   5.1554212  14.8463543  )
        43           O1  tau(  43) = (   5.0943320   2.9764981  14.8463543  )
        44           O1  tau(  44) = (  -0.0376753   2.9764981  14.8463543  )
        45           O1  tau(  45) = (   2.5580018   2.9789231  14.8629252  )

     number of k points=    10  Fermi-Dirac smearing, width (Ry)=  0.0073
                       cart. coord. in units 2pi/alat
        k(    1) = (   0.0000000   0.0000000   0.0000000), wk =   0.1111111
        k(    2) = (   0.0000000   0.0509936   0.0000000), wk =   0.2222222
        k(    3) = (   0.0441617   0.0254968   0.0000000), wk =   0.2222222
        k(    4) = (   0.0441617   0.0764904   0.0000000), wk =   0.2222222
        k(    5) = (   0.0441617  -0.0254968   0.0000000), wk =   0.2222222
        k(    6) = (   0.0000000   0.0000000   0.0000000), wk =   0.1111111
        k(    7) = (   0.0000000   0.0509936   0.0000000), wk =   0.2222222
        k(    8) = (   0.0441617   0.0254968   0.0000000), wk =   0.2222222
        k(    9) = (   0.0441617   0.0764904   0.0000000), wk =   0.2222222
        k(   10) = (   0.0441617  -0.0254968   0.0000000), wk =   0.2222222

     Dense  grid:  1102011 G-vectors     FFT dimensions: (  96,  96, 270)

     Smooth grid:   278611 G-vectors     FFT dimensions: (  64,  64, 180)

     Largest allocated arrays     est. size (Mb)     dimensions
        Kohn-Sham Wavefunctions        10.23 Mb     (    2183,  307)
        NL pseudopotentials            23.98 Mb     (    2183,  720)
        Each V/rho on FFT grid          4.78 Mb     (  156672,   2)
        Each G-vector array             0.53 Mb     (   68874)
        G-vector shells                 0.19 Mb     (   24563)
     Largest temporary arrays     est. size (Mb)     dimensions
        Auxiliary wavefunctions        40.90 Mb     (    2183, 1228)
        Each subspace H/S matrix       23.01 Mb     (    1228, 1228)
        Each <psi_i|beta_j> matrix      3.37 Mb     (     720,  307)
        Arrays for rho mixing          23.91 Mb     (  156672,   10)

     Check: negative/imaginary core charge=   -0.000010    0.000000

     Initial potential from superposition of free atoms
     Check: negative starting charge=(component1):   -0.000487
     Check: negative starting charge=(component2):   -0.000223

     starting charge  413.99095, renormalised to  414.00000

     negative rho (up, down):  4.874E-04 2.232E-04
 
     Adding external electric field

     Computed dipole along edir(3) : 
        Dipole               -0.0094 Ry au,         -0.0239 Debye
        Dipole field         -0.0000 Ry au
 
        Potential amp.        0.0013 Ry
        Total length         38.9923 bohr
 
 
     Adding external electric field

     Computed dipole along edir(3) : 
        Dipole               -0.0094 Ry au,         -0.0239 Debye
        Dipole field         -0.0000 Ry au
 
        Potential amp.        0.0013 Ry
        Total length         38.9923 bohr
 
     Starting wfc are  360 randomized atomic wfcs

     total cpu time spent up to now is       35.1 secs

     Self-consistent Calculation

     iteration #  1     ecut=    44.10 Ry     beta=0.10
     Davidson diagonalization with overlap
     ethr =  1.00E-02,  avg # of iterations =  7.4

     negative rho (up, down):  4.540E-04 2.046E-04
 
     Adding external electric field

     Computed dipole along edir(3) : 
        Dipole               -1.3238 Ry au,         -3.3647 Debye
        Dipole field         -0.0024 Ry au
 
        Potential amp.        0.1841 Ry
        Total length         38.9923 bohr
 
 
     Adding external electric field

     Computed dipole along edir(3) : 
        Dipole               -1.3238 Ry au,         -3.3647 Debye
        Dipole field         -0.0024 Ry au
 
        Potential amp.        0.1841 Ry
        Total length         38.9923 bohr
 
 
     Magnetic moment per site:
     atom:    1    charge:    3.9465    magn:    1.1285    constr:    0.0000
     atom:    2    charge:    3.9675    magn:    1.1116    constr:    0.0000
     atom:    3    charge:    3.9725    magn:    1.1065    constr:    0.0000
     atom:    4    charge:    3.9374    magn:    1.1518    constr:    0.0000
     atom:    5    charge:    3.9465    magn:    1.1285    constr:    0.0000
     atom:    6    charge:    3.9674    magn:    1.1116    constr:    0.0000
     atom:    7    charge:    3.9724    magn:    1.1068    constr:    0.0000
     atom:    8    charge:    3.9377    magn:    1.1515    constr:    0.0000
     atom:    9    charge:    3.9464    magn:    1.1285    constr:    0.0000
     atom:   10    charge:    3.9675    magn:    1.1116    constr:    0.0000
     atom:   11    charge:    3.9725    magn:    1.1066    constr:    0.0000
     atom:   12    charge:    3.9367    magn:    1.1530    constr:    0.0000
     atom:   13    charge:    3.9464    magn:    1.1285    constr:    0.0000
     atom:   14    charge:    3.9674    magn:    1.1116    constr:    0.0000
     atom:   15    charge:    3.9724    magn:    1.1068    constr:    0.0000
     atom:   16    charge:    3.9370    magn:    1.1525    constr:    0.0000
     atom:   17    charge:    3.9464    magn:    1.1285    constr:    0.0000
     atom:   18    charge:    3.9674    magn:    1.1116    constr:    0.0000
     atom:   19    charge:    3.9723    magn:    1.1069    constr:    0.0000
     atom:   20    charge:    3.9366    magn:    1.1529    constr:    0.0000
     atom:   21    charge:    3.9464    magn:    1.1285    constr:    0.0000
     atom:   22    charge:    3.9674    magn:    1.1116    constr:    0.0000
     atom:   23    charge:    3.9724    magn:    1.1067    constr:    0.0000
     atom:   24    charge:    3.9369    magn:    1.1528    constr:    0.0000
     atom:   25    charge:    3.9465    magn:    1.1284    constr:    0.0000
     atom:   26    charge:    3.9674    magn:    1.1117    constr:    0.0000
     atom:   27    charge:    3.9726    magn:    1.1065    constr:    0.0000
     atom:   28    charge:    3.9360    magn:    1.1542    constr:    0.0000
     atom:   29    charge:    3.9465    magn:    1.1284    constr:    0.0000
     atom:   30    charge:    3.9674    magn:    1.1117    constr:    0.0000
     atom:   31    charge:    3.9726    magn:    1.1065    constr:    0.0000
     atom:   32    charge:    3.9369    magn:    1.1529    constr:    0.0000
     atom:   33    charge:    3.9465    magn:    1.1285    constr:    0.0000
     atom:   34    charge:    3.9675    magn:    1.1116    constr:    0.0000
     atom:   35    charge:    3.9725    magn:    1.1066    constr:    0.0000
     atom:   36    charge:    3.9357    magn:    1.1546    constr:    0.0000
     atom:   37    charge:    2.0210    magn:    0.9478    constr:    0.0000
     atom:   38    charge:    2.0203    magn:    0.9469    constr:    0.0000
     atom:   39    charge:    2.0225    magn:    0.9480    constr:    0.0000
     atom:   40    charge:    2.0228    magn:    0.9484    constr:    0.0000
     atom:   41    charge:    2.0226    magn:    0.9482    constr:    0.0000
     atom:   42    charge:    2.0225    magn:    0.9481    constr:    0.0000
     atom:   43    charge:    2.0205    magn:    0.9473    constr:    0.0000
     atom:   44    charge:    2.0225    magn:    0.9481    constr:    0.0000
     atom:   45    charge:    2.0210    magn:    0.9482    constr:    0.0000

     total cpu time spent up to now is      180.1 secs

     total energy              =   -3921.78271300 Ry
     Harris-Foulkes estimate   =   -3922.49211594 Ry
     estimated scf accuracy    <      10.13459052 Ry

     total magnetization       =    48.02 Bohr mag/cell
     absolute magnetization    =    48.43 Bohr mag/cell

     iteration #  2     ecut=    44.10 Ry     beta=0.10
     Davidson diagonalization with overlap
     ethr =  2.45E-03,  avg # of iterations =  3.3

     negative rho (up, down):  4.556E-04 2.462E-04
 
     Adding external electric field

     Computed dipole along edir(3) : 
        Dipole               -0.1397 Ry au,         -0.3551 Debye
        Dipole field         -0.0002 Ry au
 
        Potential amp.        0.0194 Ry
        Total length         38.9923 bohr
 
 
     Adding external electric field

     Computed dipole along edir(3) : 
        Dipole               -0.1397 Ry au,         -0.3551 Debye
        Dipole field         -0.0002 Ry au
 
        Potential amp.        0.0194 Ry
        Total length         38.9923 bohr
 
 
     Magnetic moment per site:
     atom:    1    charge:    3.9607    magn:    1.1067    constr:    0.0000
     atom:    2    charge:    3.9632    magn:    1.1027    constr:    0.0000
     atom:    3    charge:    3.9567    magn:    1.1076    constr:    0.0000
     atom:    4    charge:    3.9433    magn:    1.1397    constr:    0.0000
     atom:    5    charge:    3.9607    magn:    1.1067    constr:    0.0000
     atom:    6    charge:    3.9631    magn:    1.1027    constr:    0.0000
     atom:    7    charge:    3.9565    magn:    1.1080    constr:    0.0000
     atom:    8    charge:    3.9435    magn:    1.1395    constr:    0.0000
     atom:    9    charge:    3.9607    magn:    1.1067    constr:    0.0000
     atom:   10    charge:    3.9632    magn:    1.1027    constr:    0.0000
     atom:   11    charge:    3.9567    magn:    1.1077    constr:    0.0000
     atom:   12    charge:    3.9427    magn:    1.1409    constr:    0.0000
     atom:   13    charge:    3.9607    magn:    1.1067    constr:    0.0000
     atom:   14    charge:    3.9631    magn:    1.1027    constr:    0.0000
     atom:   15    charge:    3.9565    magn:    1.1080    constr:    0.0000
     atom:   16    charge:    3.9430    magn:    1.1404    constr:    0.0000
     atom:   17    charge:    3.9607    magn:    1.1067    constr:    0.0000
     atom:   18    charge:    3.9631    magn:    1.1027    constr:    0.0000
     atom:   19    charge:    3.9564    magn:    1.1080    constr:    0.0000
     atom:   20    charge:    3.9427    magn:    1.1407    constr:    0.0000
     atom:   21    charge:    3.9607    magn:    1.1067    constr:    0.0000
     atom:   22    charge:    3.9631    magn:    1.1027    constr:    0.0000
     atom:   23    charge:    3.9565    magn:    1.1078    constr:    0.0000
     atom:   24    charge:    3.9429    magn:    1.1408    constr:    0.0000
     atom:   25    charge:    3.9607    magn:    1.1067    constr:    0.0000
     atom:   26    charge:    3.9631    magn:    1.1027    constr:    0.0000
     atom:   27    charge:    3.9567    magn:    1.1077    constr:    0.0000
     atom:   28    charge:    3.9421    magn:    1.1421    constr:    0.0000
     atom:   29    charge:    3.9607    magn:    1.1066    constr:    0.0000
     atom:   30    charge:    3.9631    magn:    1.1027    constr:    0.0000
     atom:   31    charge:    3.9566    magn:    1.1076    constr:    0.0000
     atom:   32    charge:    3.9429    magn:    1.1408    constr:    0.0000
     atom:   33    charge:    3.9607    magn:    1.1067    constr:    0.0000
     atom:   34    charge:    3.9632    magn:    1.1027    constr:    0.0000
     atom:   35    charge:    3.9567    magn:    1.1077    constr:    0.0000
     atom:   36    charge:    3.9420    magn:    1.1424    constr:    0.0000
     atom:   37    charge:    2.0243    magn:    0.9370    constr:    0.0000
     atom:   38    charge:    2.0236    magn:    0.9360    constr:    0.0000
     atom:   39    charge:    2.0258    magn:    0.9370    constr:    0.0000
     atom:   40    charge:    2.0260    magn:    0.9375    constr:    0.0000
     atom:   41    charge:    2.0258    magn:    0.9374    constr:    0.0000
     atom:   42    charge:    2.0258    magn:    0.9372    constr:    0.0000
     atom:   43    charge:    2.0238    magn:    0.9364    constr:    0.0000
     atom:   44    charge:    2.0258    magn:    0.9372    constr:    0.0000
     atom:   45    charge:    2.0242    magn:    0.9373    constr:    0.0000

     total cpu time spent up to now is      266.9 secs

     total energy              =   -3921.55025433 Ry
     Harris-Foulkes estimate   =   -3924.36832544 Ry
     estimated scf accuracy    <      72.25560271 Ry

     total magnetization       =    51.50 Bohr mag/cell
     absolute magnetization    =    52.28 Bohr mag/cell

     iteration #  3     ecut=    44.10 Ry     beta=0.10
     Davidson diagonalization with overlap
     ethr =  2.45E-03,  avg # of iterations =  2.0

     negative rho (up, down):  4.647E-04 3.122E-04
 
     Adding external electric field

     Computed dipole along edir(3) : 
        Dipole               -1.1330 Ry au,         -2.8797 Debye
        Dipole field         -0.0020 Ry au
 
        Potential amp.        0.1576 Ry
        Total length         38.9923 bohr
 
 
     Adding external electric field

     Computed dipole along edir(3) : 
        Dipole               -1.1330 Ry au,         -2.8797 Debye
        Dipole field         -0.0020 Ry au
 
        Potential amp.        0.1576 Ry
        Total length         38.9923 bohr
 
 
     Magnetic moment per site:
     atom:    1    charge:    3.9610    magn:    1.0994    constr:    0.0000
     atom:    2    charge:    3.9585    magn:    1.0984    constr:    0.0000
     atom:    3    charge:    3.9567    magn:    1.0992    constr:    0.0000
     atom:    4    charge:    3.9486    magn:    1.1300    constr:    0.0000
     atom:    5    charge:    3.9610    magn:    1.0994    constr:    0.0000
     atom:    6    charge:    3.9585    magn:    1.0984    constr:    0.0000
     atom:    7    charge:    3.9565    magn:    1.0996    constr:    0.0000
     atom:    8    charge:    3.9488    magn:    1.1298    constr:    0.0000
     atom:    9    charge:    3.9610    magn:    1.0994    constr:    0.0000
     atom:   10    charge:    3.9585    magn:    1.0984    constr:    0.0000
     atom:   11    charge:    3.9566    magn:    1.0994    constr:    0.0000
     atom:   12    charge:    3.9481    magn:    1.1312    constr:    0.0000
     atom:   13    charge:    3.9610    magn:    1.0994    constr:    0.0000
     atom:   14    charge:    3.9585    magn:    1.0984    constr:    0.0000
     atom:   15    charge:    3.9564    magn:    1.0996    constr:    0.0000
     atom:   16    charge:    3.9483    magn:    1.1307    constr:    0.0000
     atom:   17    charge:    3.9610    magn:    1.0994    constr:    0.0000
     atom:   18    charge:    3.9585    magn:    1.0984    constr:    0.0000
     atom:   19    charge:    3.9564    magn:    1.0997    constr:    0.0000
     atom:   20    charge:    3.9481    magn:    1.1310    constr:    0.0000
     atom:   21    charge:    3.9610    magn:    1.0994    constr:    0.0000
     atom:   22    charge:    3.9585    magn:    1.0983    constr:    0.0000
     atom:   23    charge:    3.9564    magn:    1.0995    constr:    0.0000
     atom:   24    charge:    3.9482    magn:    1.1311    constr:    0.0000
     atom:   25    charge:    3.9610    magn:    1.0994    constr:    0.0000
     atom:   26    charge:    3.9585    magn:    1.0984    constr:    0.0000
     atom:   27    charge:    3.9566    magn:    1.0993    constr:    0.0000
     atom:   28    charge:    3.9476    magn:    1.1324    constr:    0.0000
     atom:   29    charge:    3.9610    magn:    1.0994    constr:    0.0000
     atom:   30    charge:    3.9585    magn:    1.0984    constr:    0.0000
     atom:   31    charge:    3.9566    magn:    1.0993    constr:    0.0000
     atom:   32    charge:    3.9483    magn:    1.1312    constr:    0.0000
     atom:   33    charge:    3.9610    magn:    1.0994    constr:    0.0000
     atom:   34    charge:    3.9585    magn:    1.0984    constr:    0.0000
     atom:   35    charge:    3.9566    magn:    1.0994    constr:    0.0000
     atom:   36    charge:    3.9475    magn:    1.1328    constr:    0.0000
     atom:   37    charge:    2.0267    magn:    0.9294    constr:    0.0000
     atom:   38    charge:    2.0260    magn:    0.9283    constr:    0.0000
     atom:   39    charge:    2.0281    magn:    0.9293    constr:    0.0000
     atom:   40    charge:    2.0284    magn:    0.9299    constr:    0.0000
     atom:   41    charge:    2.0282    magn:    0.9297    constr:    0.0000
     atom:   42    charge:    2.0281    magn:    0.9296    constr:    0.0000
     atom:   43    charge:    2.0262    magn:    0.9288    constr:    0.0000
     atom:   44    charge:    2.0281    magn:    0.9295    constr:    0.0000
     atom:   45    charge:    2.0265    magn:    0.9296    constr:    0.0000

     total cpu time spent up to now is      346.9 secs

     total energy              =   -3922.24955068 Ry
     Harris-Foulkes estimate   =   -3923.43367116 Ry
     estimated scf accuracy    <      72.09832945 Ry

     total magnetization       =    48.98 Bohr mag/cell
     absolute magnetization    =    49.94 Bohr mag/cell

     iteration #  4     ecut=    44.10 Ry     beta=0.10
     Davidson diagonalization with overlap
     ethr =  2.45E-03,  avg # of iterations =  1.0

     negative rho (up, down):  4.688E-04 3.131E-04
 
     Adding external electric field

     Computed dipole along edir(3) : 
        Dipole               -0.9170 Ry au,         -2.3308 Debye
        Dipole field         -0.0016 Ry au
 
        Potential amp.        0.1275 Ry
        Total length         38.9923 bohr
 
 
     Adding external electric field

     Computed dipole along edir(3) : 
        Dipole               -0.9170 Ry au,         -2.3308 Debye
        Dipole field         -0.0016 Ry au
 
        Potential amp.        0.1275 Ry
        Total length         38.9923 bohr
 
 
     Magnetic moment per site:
     atom:    1    charge:    3.9723    magn:    1.0493    constr:    0.0000
     atom:    2    charge:    3.9526    magn:    1.0602    constr:    0.0000
     atom:    3    charge:    3.9645    magn:    1.0494    constr:    0.0000
     atom:    4    charge:    3.9502    magn:    1.0987    constr:    0.0000
     atom:    5    charge:    3.9723    magn:    1.0493    constr:    0.0000
     atom:    6    charge:    3.9526    magn:    1.0602    constr:    0.0000
     atom:    7    charge:    3.9643    magn:    1.0500    constr:    0.0000
     atom:    8    charge:    3.9501    magn:    1.0986    constr:    0.0000
     atom:    9    charge:    3.9723    magn:    1.0492    constr:    0.0000
     atom:   10    charge:    3.9526    magn:    1.0602    constr:    0.0000
     atom:   11    charge:    3.9645    magn:    1.0497    constr:    0.0000
     atom:   12    charge:    3.9500    magn:    1.0997    constr:    0.0000
     atom:   13    charge:    3.9723    magn:    1.0492    constr:    0.0000
     atom:   14    charge:    3.9527    magn:    1.0602    constr:    0.0000
     atom:   15    charge:    3.9643    magn:    1.0500    constr:    0.0000
     atom:   16    charge:    3.9501    magn:    1.0993    constr:    0.0000
     atom:   17    charge:    3.9723    magn:    1.0493    constr:    0.0000
     atom:   18    charge:    3.9527    magn:    1.0602    constr:    0.0000
     atom:   19    charge:    3.9643    magn:    1.0501    constr:    0.0000
     atom:   20    charge:    3.9501    magn:    1.0994    constr:    0.0000
     atom:   21    charge:    3.9724    magn:    1.0492    constr:    0.0000
     atom:   22    charge:    3.9526    magn:    1.0602    constr:    0.0000
     atom:   23    charge:    3.9644    magn:    1.0497    constr:    0.0000
     atom:   24    charge:    3.9500    magn:    1.0997    constr:    0.0000
     atom:   25    charge:    3.9723    magn:    1.0493    constr:    0.0000
     atom:   26    charge:    3.9526    magn:    1.0603    constr:    0.0000
     atom:   27    charge:    3.9644    magn:    1.0496    constr:    0.0000
     atom:   28    charge:    3.9499    magn:    1.1008    constr:    0.0000
     atom:   29    charge:    3.9723    magn:    1.0493    constr:    0.0000
     atom:   30    charge:    3.9526    magn:    1.0602    constr:    0.0000
     atom:   31    charge:    3.9644    magn:    1.0495    constr:    0.0000
     atom:   32    charge:    3.9501    magn:    1.0998    constr:    0.0000
     atom:   33    charge:    3.9723    magn:    1.0493    constr:    0.0000
     atom:   34    charge:    3.9526    magn:    1.0602    constr:    0.0000
     atom:   35    charge:    3.9644    magn:    1.0498    constr:    0.0000
     atom:   36    charge:    3.9501    magn:    1.1009    constr:    0.0000
     atom:   37    charge:    2.0319    magn:    0.8938    constr:    0.0000
     atom:   38    charge:    2.0311    magn:    0.8922    constr:    0.0000
     atom:   39    charge:    2.0333    magn:    0.8933    constr:    0.0000
     atom:   40    charge:    2.0336    magn:    0.8942    constr:    0.0000
     atom:   41    charge:    2.0333    magn:    0.8939    constr:    0.0000
     atom:   42    charge:    2.0333    magn:    0.8936    constr:    0.0000
     atom:   43    charge:    2.0313    magn:    0.8930    constr:    0.0000
     atom:   44    charge:    2.0332    magn:    0.8935    constr:    0.0000
     atom:   45    charge:    2.0315    magn:    0.8939    constr:    0.0000

     total cpu time spent up to now is      421.9 secs

     total energy              =   -3923.05564809 Ry
     Harris-Foulkes estimate   =   -3922.96377593 Ry
     estimated scf accuracy    <      10.84040032 Ry

     total magnetization       =    48.18 Bohr mag/cell
     absolute magnetization    =    48.50 Bohr mag/cell

     iteration #  5     ecut=    44.10 Ry     beta=0.10
     Davidson diagonalization with overlap
     ethr =  2.45E-03,  avg # of iterations =  1.0

     negative rho (up, down):  4.613E-04 2.480E-04
 
     Adding external electric field

     Computed dipole along edir(3) : 
        Dipole               -1.4569 Ry au,         -3.7030 Debye
        Dipole field         -0.0026 Ry au
 
        Potential amp.        0.2026 Ry
        Total length         38.9923 bohr
 
 
     Adding external electric field

     Computed dipole along edir(3) : 
        Dipole               -1.4569 Ry au,         -3.7030 Debye
        Dipole field         -0.0026 Ry au
 
        Potential amp.        0.2026 Ry
        Total length         38.9923 bohr
 
 
     Magnetic moment per site:
     atom:    1    charge:    3.9829    magn:    0.9397    constr:    0.0000
     atom:    2    charge:    3.9608    magn:    0.9499    constr:    0.0000
     atom:    3    charge:    3.9641    magn:    0.9426    constr:    0.0000
     atom:    4    charge:    3.9598    magn:    1.0177    constr:    0.0000
     atom:    5    charge:    3.9829    magn:    0.9397    constr:    0.0000
     atom:    6    charge:    3.9608    magn:    0.9499    constr:    0.0000
     atom:    7    charge:    3.9642    magn:    0.9434    constr:    0.0000
     atom:    8    charge:    3.9598    magn:    1.0174    constr:    0.0000
     atom:    9    charge:    3.9829    magn:    0.9397    constr:    0.0000
     atom:   10    charge:    3.9608    magn:    0.9499    constr:    0.0000
     atom:   11    charge:    3.9641    magn:    0.9430    constr:    0.0000
     atom:   12    charge:    3.9598    magn:    1.0189    constr:    0.0000
     atom:   13    charge:    3.9829    magn:    0.9397    constr:    0.0000
     atom:   14    charge:    3.9609    magn:    0.9498    constr:    0.0000
     atom:   15    charge:    3.9641    magn:    0.9435    constr:    0.0000
     atom:   16    charge:    3.9599    magn:    1.0184    constr:    0.0000
     atom:   17    charge:    3.9829    magn:    0.9397    constr:    0.0000
     atom:   18    charge:    3.9609    magn:    0.9498    constr:    0.0000
     atom:   19    charge:    3.9641    magn:    0.9435    constr:    0.0000
     atom:   20    charge:    3.9600    magn:    1.0184    constr:    0.0000
     atom:   21    charge:    3.9829    magn:    0.9397    constr:    0.0000
     atom:   22    charge:    3.9609    magn:    0.9498    constr:    0.0000
     atom:   23    charge:    3.9641    magn:    0.9429    constr:    0.0000
     atom:   24    charge:    3.9598    magn:    1.0189    constr:    0.0000
     atom:   25    charge:    3.9829    magn:    0.9397    constr:    0.0000
     atom:   26    charge:    3.9608    magn:    0.9500    constr:    0.0000
     atom:   27    charge:    3.9641    magn:    0.9428    constr:    0.0000
     atom:   28    charge:    3.9599    magn:    1.0201    constr:    0.0000
     atom:   29    charge:    3.9829    magn:    0.9397    constr:    0.0000
     atom:   30    charge:    3.9608    magn:    0.9499    constr:    0.0000
     atom:   31    charge:    3.9641    magn:    0.9425    constr:    0.0000
     atom:   32    charge:    3.9599    magn:    1.0190    constr:    0.0000
     atom:   33    charge:    3.9829    magn:    0.9397    constr:    0.0000
     atom:   34    charge:    3.9608    magn:    0.9499    constr:    0.0000
     atom:   35    charge:    3.9641    magn:    0.9431    constr:    0.0000
     atom:   36    charge:    3.9603    magn:    1.0201    constr:    0.0000
     atom:   37    charge:    2.0464    magn:    0.8052    constr:    0.0000
     atom:   38    charge:    2.0454    magn:    0.8023    constr:    0.0000
     atom:   39    charge:    2.0476    magn:    0.8033    constr:    0.0000
     atom:   40    charge:    2.0480    magn:    0.8052    constr:    0.0000
     atom:   41    charge:    2.0477    magn:    0.8045    constr:    0.0000
     atom:   42    charge:    2.0476    magn:    0.8040    constr:    0.0000
     atom:   43    charge:    2.0457    magn:    0.8039    constr:    0.0000
     atom:   44    charge:    2.0476    magn:    0.8038    constr:    0.0000
     atom:   45    charge:    2.0454    magn:    0.8045    constr:    0.0000

     total cpu time spent up to now is      497.3 secs

     total energy              =   -3923.80177386 Ry
     Harris-Foulkes estimate   =   -3923.25242222 Ry
     estimated scf accuracy    <       5.88126024 Ry

     total magnetization       =    47.33 Bohr mag/cell
     absolute magnetization    =    48.04 Bohr mag/cell

     iteration #  6     ecut=    44.10 Ry     beta=0.10
     Davidson diagonalization with overlap
     ethr =  1.42E-03,  avg # of iterations =  1.3

     negative rho (up, down):  4.679E-04 2.474E-04
 
     Adding external electric field

     Computed dipole along edir(3) : 
        Dipole               -1.6112 Ry au,         -4.0953 Debye
        Dipole field         -0.0029 Ry au
 
        Potential amp.        0.2241 Ry
        Total length         38.9923 bohr
 
 
     Adding external electric field

     Computed dipole along edir(3) : 
        Dipole               -1.6112 Ry au,         -4.0953 Debye
        Dipole field         -0.0029 Ry au
 
        Potential amp.        0.2241 Ry
        Total length         38.9923 bohr
 
 
     Magnetic moment per site:
     atom:    1    charge:    3.9779    magn:    0.8588    constr:    0.0000
     atom:    2    charge:    3.9635    magn:    0.8660    constr:    0.0000
     atom:    3    charge:    3.9660    magn:    0.8566    constr:    0.0000
     atom:    4    charge:    3.9631    magn:    0.9551    constr:    0.0000
     atom:    5    charge:    3.9779    magn:    0.8588    constr:    0.0000
     atom:    6    charge:    3.9635    magn:    0.8660    constr:    0.0000
     atom:    7    charge:    3.9659    magn:    0.8580    constr:    0.0000
     atom:    8    charge:    3.9635    magn:    0.9544    constr:    0.0000
     atom:    9    charge:    3.9780    magn:    0.8588    constr:    0.0000
     atom:   10    charge:    3.9635    magn:    0.8660    constr:    0.0000
     atom:   11    charge:    3.9661    magn:    0.8572    constr:    0.0000
     atom:   12    charge:    3.9618    magn:    0.9572    constr:    0.0000
     atom:   13    charge:    3.9780    magn:    0.8587    constr:    0.0000
     atom:   14    charge:    3.9634    magn:    0.8659    constr:    0.0000
     atom:   15    charge:    3.9659    magn:    0.8580    constr:    0.0000
     atom:   16    charge:    3.9621    magn:    0.9564    constr:    0.0000
     atom:   17    charge:    3.9780    magn:    0.8588    constr:    0.0000
     atom:   18    charge:    3.9634    magn:    0.8659    constr:    0.0000
     atom:   19    charge:    3.9658    magn:    0.8581    constr:    0.0000
     atom:   20    charge:    3.9618    magn:    0.9568    constr:    0.0000
     atom:   21    charge:    3.9781    magn:    0.8586    constr:    0.0000
     atom:   22    charge:    3.9635    magn:    0.8659    constr:    0.0000
     atom:   23    charge:    3.9659    magn:    0.8573    constr:    0.0000
     atom:   24    charge:    3.9618    magn:    0.9572    constr:    0.0000
     atom:   25    charge:    3.9779    magn:    0.8588    constr:    0.0000
     atom:   26    charge:    3.9635    magn:    0.8661    constr:    0.0000
     atom:   27    charge:    3.9659    magn:    0.8570    constr:    0.0000
     atom:   28    charge:    3.9603    magn:    0.9595    constr:    0.0000
     atom:   29    charge:    3.9779    magn:    0.8588    constr:    0.0000
     atom:   30    charge:    3.9634    magn:    0.8660    constr:    0.0000
     atom:   31    charge:    3.9659    magn:    0.8567    constr:    0.0000
     atom:   32    charge:    3.9620    magn:    0.9573    constr:    0.0000
     atom:   33    charge:    3.9780    magn:    0.8588    constr:    0.0000
     atom:   34    charge:    3.9635    magn:    0.8660    constr:    0.0000
     atom:   35    charge:    3.9661    magn:    0.8574    constr:    0.0000
     atom:   36    charge:    3.9600    magn:    0.9597    constr:    0.0000
     atom:   37    charge:    2.0548    magn:    0.7338    constr:    0.0000
     atom:   38    charge:    2.0539    magn:    0.7298    constr:    0.0000
     atom:   39    charge:    2.0561    magn:    0.7308    constr:    0.0000
     atom:   40    charge:    2.0564    magn:    0.7335    constr:    0.0000
     atom:   41    charge:    2.0561    magn:    0.7325    constr:    0.0000
     atom:   42    charge:    2.0561    magn:    0.7318    constr:    0.0000
     atom:   43    charge:    2.0541    magn:    0.7320    constr:    0.0000
     atom:   44    charge:    2.0561    magn:    0.7315    constr:    0.0000
     atom:   45    charge:    2.0539    magn:    0.7323    constr:    0.0000

     total cpu time spent up to now is      573.9 secs

     total energy              =   -3924.28993756 Ry
     Harris-Foulkes estimate   =   -3923.88383747 Ry
     estimated scf accuracy    <       2.71491660 Ry

     total magnetization       =    45.92 Bohr mag/cell
     absolute magnetization    =    46.97 Bohr mag/cell

     iteration #  7     ecut=    44.10 Ry     beta=0.10
     Davidson diagonalization with overlap
     ethr =  6.56E-04,  avg # of iterations =  1.7

     negative rho (up, down):  7.363E-04 7.157E-04
 
     Adding external electric field

     Computed dipole along edir(3) : 
        Dipole               -1.5132 Ry au,         -3.8461 Debye
        Dipole field         -0.0027 Ry au
 
        Potential amp.        0.2104 Ry
        Total length         38.9923 bohr
 
 
     Adding external electric field

     Computed dipole along edir(3) : 
        Dipole               -1.5132 Ry au,         -3.8461 Debye
        Dipole field         -0.0027 Ry au
 
        Potential amp.        0.2104 Ry
        Total length         38.9923 bohr
 
 
     Magnetic moment per site:
     atom:    1    charge:    3.9669    magn:    0.5954    constr:    0.0000
     atom:    2    charge:    3.9665    magn:    0.6036    constr:    0.0000
     atom:    3    charge:    3.9699    magn:    0.5819    constr:    0.0000
     atom:    4    charge:    3.9665    magn:    0.7545    constr:    0.0000
     atom:    5    charge:    3.9673    magn:    0.5950    constr:    0.0000
     atom:    6    charge:    3.9669    magn:    0.6033    constr:    0.0000
     atom:    7    charge:    3.9698    magn:    0.5850    constr:    0.0000
     atom:    8    charge:    3.9650    magn:    0.7546    constr:    0.0000
     atom:    9    charge:    3.9662    magn:    0.5959    constr:    0.0000
     atom:   10    charge:    3.9665    magn:    0.6036    constr:    0.0000
     atom:   11    charge:    3.9698    magn:    0.5835    constr:    0.0000
     atom:   12    charge:    3.9689    magn:    0.7539    constr:    0.0000
     atom:   13    charge:    3.9657    magn:    0.5962    constr:    0.0000
     atom:   14    charge:    3.9674    magn:    0.6027    constr:    0.0000
     atom:   15    charge:    3.9687    magn:    0.5860    constr:    0.0000
     atom:   16    charge:    3.9684    magn:    0.7534    constr:    0.0000
     atom:   17    charge:    3.9661    magn:    0.5961    constr:    0.0000
     atom:   18    charge:    3.9674    magn:    0.6027    constr:    0.0000
     atom:   19    charge:    3.9680    magn:    0.5867    constr:    0.0000
     atom:   20    charge:    3.9691    magn:    0.7532    constr:    0.0000
     atom:   21    charge:    3.9651    magn:    0.5967    constr:    0.0000
     atom:   22    charge:    3.9667    magn:    0.6032    constr:    0.0000
     atom:   23    charge:    3.9685    magn:    0.5846    constr:    0.0000
     atom:   24    charge:    3.9698    magn:    0.7532    constr:    0.0000
     atom:   25    charge:    3.9669    magn:    0.5954    constr:    0.0000
     atom:   26    charge:    3.9669    magn:    0.6033    constr:    0.0000
     atom:   27    charge:    3.9703    magn:    0.5826    constr:    0.0000
     atom:   28    charge:    3.9731    magn:    0.7523    constr:    0.0000
     atom:   29    charge:    3.9672    magn:    0.5952    constr:    0.0000
     atom:   30    charge:    3.9676    magn:    0.6026    constr:    0.0000
     atom:   31    charge:    3.9694    magn:    0.5826    constr:    0.0000
     atom:   32    charge:    3.9698    magn:    0.7535    constr:    0.0000
     atom:   33    charge:    3.9662    magn:    0.5959    constr:    0.0000
     atom:   34    charge:    3.9664    magn:    0.6036    constr:    0.0000
     atom:   35    charge:    3.9696    magn:    0.5840    constr:    0.0000
     atom:   36    charge:    3.9754    magn:    0.7501    constr:    0.0000
     atom:   37    charge:    2.0714    magn:    0.5040    constr:    0.0000
     atom:   38    charge:    2.0699    magn:    0.4964    constr:    0.0000
     atom:   39    charge:    2.0720    magn:    0.4976    constr:    0.0000
     atom:   40    charge:    2.0726    magn:    0.5029    constr:    0.0000
     atom:   41    charge:    2.0723    magn:    0.5008    constr:    0.0000
     atom:   42    charge:    2.0723    magn:    0.4993    constr:    0.0000
     atom:   43    charge:    2.0702    magn:    0.5009    constr:    0.0000
     atom:   44    charge:    2.0721    magn:    0.4989    constr:    0.0000
     atom:   45    charge:    2.0698    magn:    0.5001    constr:    0.0000

     total cpu time spent up to now is      652.6 secs

     total energy              =   -3925.08267070 Ry
     Harris-Foulkes estimate   =   -3924.32021922 Ry
     estimated scf accuracy    <       1.05198447 Ry

     total magnetization       =    43.99 Bohr mag/cell
     absolute magnetization    =    45.45 Bohr mag/cell

     iteration #  8     ecut=    44.10 Ry     beta=0.10
     Davidson diagonalization with overlap
     ethr =  2.54E-04,  avg # of iterations =  5.5

     negative rho (up, down):  7.926E-04 7.455E-04
 
     Adding external electric field

     Computed dipole along edir(3) : 
        Dipole               -1.3720 Ry au,         -3.4873 Debye
        Dipole field         -0.0024 Ry au
 
        Potential amp.        0.1908 Ry
        Total length         38.9923 bohr
 
 
     Adding external electric field

     Computed dipole along edir(3) : 
        Dipole               -1.3720 Ry au,         -3.4873 Debye
        Dipole field         -0.0024 Ry au
 
        Potential amp.        0.1908 Ry
        Total length         38.9923 bohr
 
 
     Magnetic moment per site:
     atom:    1    charge:    3.9623    magn:    0.5507    constr:    0.0000
     atom:    2    charge:    3.9683    magn:    0.5559    constr:    0.0000
     atom:    3    charge:    3.9698    magn:    0.5329    constr:    0.0000
     atom:    4    charge:    3.9713    magn:    0.7106    constr:    0.0000
     atom:    5    charge:    3.9622    magn:    0.5507    constr:    0.0000
     atom:    6    charge:    3.9686    magn:    0.5557    constr:    0.0000
     atom:    7    charge:    3.9704    magn:    0.5359    constr:    0.0000
     atom:    8    charge:    3.9712    magn:    0.7104    constr:    0.0000
     atom:    9    charge:    3.9622    magn:    0.5508    constr:    0.0000
     atom:   10    charge:    3.9685    magn:    0.5558    constr:    0.0000
     atom:   11    charge:    3.9700    magn:    0.5344    constr:    0.0000
     atom:   12    charge:    3.9714    magn:    0.7099    constr:    0.0000
     atom:   13    charge:    3.9622    magn:    0.5507    constr:    0.0000
     atom:   14    charge:    3.9687    magn:    0.5554    constr:    0.0000
     atom:   15    charge:    3.9700    magn:    0.5365    constr:    0.0000
     atom:   16    charge:    3.9710    magn:    0.7093    constr:    0.0000
     atom:   17    charge:    3.9622    magn:    0.5508    constr:    0.0000
     atom:   18    charge:    3.9689    magn:    0.5552    constr:    0.0000
     atom:   19    charge:    3.9699    magn:    0.5369    constr:    0.0000
     atom:   20    charge:    3.9714    magn:    0.7091    constr:    0.0000
     atom:   21    charge:    3.9621    magn:    0.5509    constr:    0.0000
     atom:   22    charge:    3.9687    magn:    0.5554    constr:    0.0000
     atom:   23    charge:    3.9699    magn:    0.5350    constr:    0.0000
     atom:   24    charge:    3.9709    magn:    0.7089    constr:    0.0000
     atom:   25    charge:    3.9622    magn:    0.5508    constr:    0.0000
     atom:   26    charge:    3.9681    magn:    0.5561    constr:    0.0000
     atom:   27    charge:    3.9699    magn:    0.5339    constr:    0.0000
     atom:   28    charge:    3.9706    magn:    0.7080    constr:    0.0000
     atom:   29    charge:    3.9622    magn:    0.5509    constr:    0.0000
     atom:   30    charge:    3.9685    magn:    0.5556    constr:    0.0000
     atom:   31    charge:    3.9698    magn:    0.5334    constr:    0.0000
     atom:   32    charge:    3.9712    magn:    0.7090    constr:    0.0000
     atom:   33    charge:    3.9622    magn:    0.5508    constr:    0.0000
     atom:   34    charge:    3.9682    magn:    0.5559    constr:    0.0000
     atom:   35    charge:    3.9698    magn:    0.5350    constr:    0.0000
     atom:   36    charge:    3.9713    magn:    0.7062    constr:    0.0000
     atom:   37    charge:    2.0704    magn:    0.4587    constr:    0.0000
     atom:   38    charge:    2.0692    magn:    0.4508    constr:    0.0000
     atom:   39    charge:    2.0711    magn:    0.4518    constr:    0.0000
     atom:   40    charge:    2.0709    magn:    0.4569    constr:    0.0000
     atom:   41    charge:    2.0714    magn:    0.4553    constr:    0.0000
     atom:   42    charge:    2.0717    magn:    0.4540    constr:    0.0000
     atom:   43    charge:    2.0691    magn:    0.4552    constr:    0.0000
     atom:   44    charge:    2.0716    magn:    0.4535    constr:    0.0000
     atom:   45    charge:    2.0694    magn:    0.4547    constr:    0.0000

     total cpu time spent up to now is      755.3 secs

     total energy              =   -3925.30849946 Ry
     Harris-Foulkes estimate   =   -3925.27213419 Ry
     estimated scf accuracy    <       6.48751323 Ry

     total magnetization       =    30.50 Bohr mag/cell
     absolute magnetization    =    33.73 Bohr mag/cell

     iteration #  9     ecut=    44.10 Ry     beta=0.10
     Davidson diagonalization with overlap
     ethr =  2.54E-04,  avg # of iterations =  3.0

     negative rho (up, down):  7.667E-04 6.164E-04
 
     Adding external electric field

     Computed dipole along edir(3) : 
        Dipole               -1.4281 Ry au,         -3.6298 Debye
        Dipole field         -0.0025 Ry au
 
        Potential amp.        0.1986 Ry
        Total length         38.9923 bohr
 
 
     Adding external electric field

     Computed dipole along edir(3) : 
        Dipole               -1.4281 Ry au,         -3.6298 Debye
        Dipole field         -0.0025 Ry au
 
        Potential amp.        0.1986 Ry
        Total length         38.9923 bohr
 
 
     Magnetic moment per site:
     atom:    1    charge:    3.9627    magn:    0.5622    constr:    0.0000
     atom:    2    charge:    3.9677    magn:    0.5685    constr:    0.0000
     atom:    3    charge:    3.9694    magn:    0.5461    constr:    0.0000
     atom:    4    charge:    3.9709    magn:    0.7257    constr:    0.0000
     atom:    5    charge:    3.9624    magn:    0.5623    constr:    0.0000
     atom:    6    charge:    3.9681    magn:    0.5681    constr:    0.0000
     atom:    7    charge:    3.9704    magn:    0.5487    constr:    0.0000
     atom:    8    charge:    3.9707    magn:    0.7255    constr:    0.0000
     atom:    9    charge:    3.9627    magn:    0.5622    constr:    0.0000
     atom:   10    charge:    3.9681    magn:    0.5681    constr:    0.0000
     atom:   11    charge:    3.9697    magn:    0.5475    constr:    0.0000
     atom:   12    charge:    3.9715    magn:    0.7253    constr:    0.0000
     atom:   13    charge:    3.9628    magn:    0.5620    constr:    0.0000
     atom:   14    charge:    3.9682    magn:    0.5678    constr:    0.0000
     atom:   15    charge:    3.9701    magn:    0.5493    constr:    0.0000
     atom:   16    charge:    3.9707    magn:    0.7248    constr:    0.0000
     atom:   17    charge:    3.9628    magn:    0.5622    constr:    0.0000
     atom:   18    charge:    3.9686    magn:    0.5675    constr:    0.0000
     atom:   19    charge:    3.9702    magn:    0.5494    constr:    0.0000
     atom:   20    charge:    3.9715    magn:    0.7245    constr:    0.0000
     atom:   21    charge:    3.9628    magn:    0.5621    constr:    0.0000
     atom:   22    charge:    3.9684    magn:    0.5677    constr:    0.0000
     atom:   23    charge:    3.9701    magn:    0.5477    constr:    0.0000
     atom:   24    charge:    3.9703    magn:    0.7246    constr:    0.0000
     atom:   25    charge:    3.9626    magn:    0.5623    constr:    0.0000
     atom:   26    charge:    3.9670    magn:    0.5689    constr:    0.0000
     atom:   27    charge:    3.9695    magn:    0.5472    constr:    0.0000
     atom:   28    charge:    3.9699    magn:    0.7241    constr:    0.0000
     atom:   29    charge:    3.9624    magn:    0.5625    constr:    0.0000
     atom:   30    charge:    3.9677    magn:    0.5683    constr:    0.0000
     atom:   31    charge:    3.9698    magn:    0.5463    constr:    0.0000
     atom:   32    charge:    3.9706    magn:    0.7247    constr:    0.0000
     atom:   33    charge:    3.9628    magn:    0.5621    constr:    0.0000
     atom:   34    charge:    3.9675    magn:    0.5686    constr:    0.0000
     atom:   35    charge:    3.9694    magn:    0.5482    constr:    0.0000
     atom:   36    charge:    3.9703    magn:    0.7221    constr:    0.0000
     atom:   37    charge:    2.0720    magn:    0.4725    constr:    0.0000
     atom:   38    charge:    2.0712    magn:    0.4649    constr:    0.0000
     atom:   39    charge:    2.0730    magn:    0.4659    constr:    0.0000
     atom:   40    charge:    2.0724    magn:    0.4708    constr:    0.0000
     atom:   41    charge:    2.0732    magn:    0.4693    constr:    0.0000
     atom:   42    charge:    2.0737    magn:    0.4681    constr:    0.0000
     atom:   43    charge:    2.0708    magn:    0.4692    constr:    0.0000
     atom:   44    charge:    2.0736    magn:    0.4675    constr:    0.0000
     atom:   45    charge:    2.0713    magn:    0.4687    constr:    0.0000

     total cpu time spent up to now is      840.2 secs

     total energy              =   -3925.32402510 Ry
     Harris-Foulkes estimate   =   -3925.33230757 Ry
     estimated scf accuracy    <       4.09424150 Ry

     total magnetization       =    28.65 Bohr mag/cell
     absolute magnetization    =    32.44 Bohr mag/cell

     iteration # 10     ecut=    44.10 Ry     beta=0.10
     Davidson diagonalization with overlap
     ethr =  2.54E-04,  avg # of iterations =  1.1

     negative rho (up, down):  8.173E-04 7.546E-04
 
     Adding external electric field

     Computed dipole along edir(3) : 
        Dipole               -1.3350 Ry au,         -3.3933 Debye
        Dipole field         -0.0024 Ry au
 
        Potential amp.        0.1857 Ry
        Total length         38.9923 bohr
 
 
     Adding external electric field

     Computed dipole along edir(3) : 
        Dipole               -1.3350 Ry au,         -3.3933 Debye
        Dipole field         -0.0024 Ry au
 
        Potential amp.        0.1857 Ry
        Total length         38.9923 bohr
 
 
     Magnetic moment per site:
     atom:    1    charge:    3.9692    magn:    0.4781    constr:    0.0000
     atom:    2    charge:    3.9685    magn:    0.4837    constr:    0.0000
     atom:    3    charge:    3.9688    magn:    0.4571    constr:    0.0000
     atom:    4    charge:    3.9699    magn:    0.6258    constr:    0.0000
     atom:    5    charge:    3.9688    magn:    0.4784    constr:    0.0000
     atom:    6    charge:    3.9696    magn:    0.4830    constr:    0.0000
     atom:    7    charge:    3.9707    magn:    0.4599    constr:    0.0000
     atom:    8    charge:    3.9698    magn:    0.6255    constr:    0.0000
     atom:    9    charge:    3.9698    magn:    0.4777    constr:    0.0000
     atom:   10    charge:    3.9700    magn:    0.4828    constr:    0.0000
     atom:   11    charge:    3.9699    magn:    0.4583    constr:    0.0000
     atom:   12    charge:    3.9729    magn:    0.6207    constr:    0.0000
     atom:   13    charge:    3.9706    magn:    0.4771    constr:    0.0000
     atom:   14    charge:    3.9696    magn:    0.4826    constr:    0.0000
     atom:   15    charge:    3.9710    magn:    0.4603    constr:    0.0000
     atom:   16    charge:    3.9711    magn:    0.6201    constr:    0.0000
     atom:   17    charge:    3.9707    magn:    0.4771    constr:    0.0000
     atom:   18    charge:    3.9711    magn:    0.4816    constr:    0.0000
     atom:   19    charge:    3.9714    magn:    0.4605    constr:    0.0000
     atom:   20    charge:    3.9724    magn:    0.6195    constr:    0.0000
     atom:   21    charge:    3.9711    magn:    0.4767    constr:    0.0000
     atom:   22    charge:    3.9705    magn:    0.4821    constr:    0.0000
     atom:   23    charge:    3.9711    magn:    0.4582    constr:    0.0000
     atom:   24    charge:    3.9705    magn:    0.6187    constr:    0.0000
     atom:   25    charge:    3.9697    magn:    0.4778    constr:    0.0000
     atom:   26    charge:    3.9663    magn:    0.4852    constr:    0.0000
     atom:   27    charge:    3.9692    magn:    0.4577    constr:    0.0000
     atom:   28    charge:    3.9714    magn:    0.6140    constr:    0.0000
     atom:   29    charge:    3.9697    magn:    0.4778    constr:    0.0000
     atom:   30    charge:    3.9681    magn:    0.4837    constr:    0.0000
     atom:   31    charge:    3.9705    magn:    0.4564    constr:    0.0000
     atom:   32    charge:    3.9714    magn:    0.6189    constr:    0.0000
     atom:   33    charge:    3.9708    magn:    0.4770    constr:    0.0000
     atom:   34    charge:    3.9679    magn:    0.4841    constr:    0.0000
     atom:   35    charge:    3.9690    magn:    0.4594    constr:    0.0000
     atom:   36    charge:    3.9724    magn:    0.6139    constr:    0.0000
     atom:   37    charge:    2.0636    magn:    0.3782    constr:    0.0000
     atom:   38    charge:    2.0612    magn:    0.3683    constr:    0.0000
     atom:   39    charge:    2.0636    magn:    0.3697    constr:    0.0000
     atom:   40    charge:    2.0642    magn:    0.3757    constr:    0.0000
     atom:   41    charge:    2.0643    magn:    0.3745    constr:    0.0000
     atom:   42    charge:    2.0641    magn:    0.3725    constr:    0.0000
     atom:   43    charge:    2.0619    magn:    0.3736    constr:    0.0000
     atom:   44    charge:    2.0636    magn:    0.3717    constr:    0.0000
     atom:   45    charge:    2.0618    magn:    0.3731    constr:    0.0000

     total cpu time spent up to now is      915.4 secs

     total energy              =   -3925.37570433 Ry
     Harris-Foulkes estimate   =   -3925.32784780 Ry
     estimated scf accuracy    <       6.07509631 Ry

     total magnetization       =    28.51 Bohr mag/cell
     absolute magnetization    =    32.18 Bohr mag/cell

     iteration # 11     ecut=    44.10 Ry     beta=0.10
     Davidson diagonalization with overlap
     ethr =  2.54E-04,  avg # of iterations =  1.0

     negative rho (up, down):  7.948E-04 7.595E-04
 
     Adding external electric field

     Computed dipole along edir(3) : 
        Dipole               -1.4053 Ry au,         -3.5719 Debye
        Dipole field         -0.0025 Ry au
 
        Potential amp.        0.1954 Ry
        Total length         38.9923 bohr
 
 
     Adding external electric field

     Computed dipole along edir(3) : 
        Dipole               -1.4053 Ry au,         -3.5719 Debye
        Dipole field         -0.0025 Ry au
 
        Potential amp.        0.1954 Ry
        Total length         38.9923 bohr
 
 
     Magnetic moment per site:
     atom:    1    charge:    3.9774    magn:    0.4356    constr:    0.0000
     atom:    2    charge:    3.9693    magn:    0.4442    constr:    0.0000
     atom:    3    charge:    3.9695    magn:    0.4149    constr:    0.0000
     atom:    4    charge:    3.9676    magn:    0.5715    constr:    0.0000
     atom:    5    charge:    3.9770    magn:    0.4359    constr:    0.0000
     atom:    6    charge:    3.9696    magn:    0.4438    constr:    0.0000
     atom:    7    charge:    3.9706    magn:    0.4185    constr:    0.0000
     atom:    8    charge:    3.9677    magn:    0.5720    constr:    0.0000
     atom:    9    charge:    3.9757    magn:    0.4367    constr:    0.0000
     atom:   10    charge:    3.9690    magn:    0.4441    constr:    0.0000
     atom:   11    charge:    3.9689    magn:    0.4172    constr:    0.0000
     atom:   12    charge:    3.9688    magn:    0.5615    constr:    0.0000
     atom:   13    charge:    3.9740    magn:    0.4379    constr:    0.0000
     atom:   14    charge:    3.9695    magn:    0.4434    constr:    0.0000
     atom:   15    charge:    3.9695    magn:    0.4197    constr:    0.0000
     atom:   16    charge:    3.9674    magn:    0.5614    constr:    0.0000
     atom:   17    charge:    3.9736    magn:    0.4381    constr:    0.0000
     atom:   18    charge:    3.9690    magn:    0.4435    constr:    0.0000
     atom:   19    charge:    3.9699    magn:    0.4201    constr:    0.0000
     atom:   20    charge:    3.9695    magn:    0.5599    constr:    0.0000
     atom:   21    charge:    3.9725    magn:    0.4388    constr:    0.0000
     atom:   22    charge:    3.9691    magn:    0.4438    constr:    0.0000
     atom:   23    charge:    3.9696    magn:    0.4174    constr:    0.0000
     atom:   24    charge:    3.9667    magn:    0.5588    constr:    0.0000
     atom:   25    charge:    3.9756    magn:    0.4368    constr:    0.0000
     atom:   26    charge:    3.9695    magn:    0.4444    constr:    0.0000
     atom:   27    charge:    3.9695    magn:    0.4155    constr:    0.0000
     atom:   28    charge:    3.9674    magn:    0.5496    constr:    0.0000
     atom:   29    charge:    3.9745    magn:    0.4375    constr:    0.0000
     atom:   30    charge:    3.9697    magn:    0.4436    constr:    0.0000
     atom:   31    charge:    3.9695    magn:    0.4150    constr:    0.0000
     atom:   32    charge:    3.9666    magn:    0.5587    constr:    0.0000
     atom:   33    charge:    3.9734    magn:    0.4382    constr:    0.0000
     atom:   34    charge:    3.9691    magn:    0.4444    constr:    0.0000
     atom:   35    charge:    3.9690    magn:    0.4179    constr:    0.0000
     atom:   36    charge:    3.9659    magn:    0.5506    constr:    0.0000
     atom:   37    charge:    2.0567    magn:    0.3281    constr:    0.0000
     atom:   38    charge:    2.0551    magn:    0.3177    constr:    0.0000
     atom:   39    charge:    2.0570    magn:    0.3190    constr:    0.0000
     atom:   40    charge:    2.0570    magn:    0.3249    constr:    0.0000
     atom:   41    charge:    2.0576    magn:    0.3246    constr:    0.0000
     atom:   42    charge:    2.0579    magn:    0.3224    constr:    0.0000
     atom:   43    charge:    2.0553    magn:    0.3229    constr:    0.0000
     atom:   44    charge:    2.0579    magn:    0.3219    constr:    0.0000
     atom:   45    charge:    2.0557    magn:    0.3232    constr:    0.0000

     total cpu time spent up to now is      990.7 secs

     total energy              =   -3925.46454315 Ry
     Harris-Foulkes estimate   =   -3925.42570493 Ry
     estimated scf accuracy    <       1.90086389 Ry

     total magnetization       =    25.71 Bohr mag/cell
     absolute magnetization    =    30.17 Bohr mag/cell

     iteration # 12     ecut=    44.10 Ry     beta=0.10
     Davidson diagonalization with overlap
     ethr =  2.54E-04,  avg # of iterations =  1.0

     negative rho (up, down):  7.415E-04 7.090E-04
 
     Adding external electric field

     Computed dipole along edir(3) : 
        Dipole               -1.3926 Ry au,         -3.5395 Debye
        Dipole field         -0.0025 Ry au
 
        Potential amp.        0.1937 Ry
        Total length         38.9923 bohr
 
 
     Adding external electric field

     Computed dipole along edir(3) : 
        Dipole               -1.3926 Ry au,         -3.5395 Debye
        Dipole field         -0.0025 Ry au
 
        Potential amp.        0.1937 Ry
        Total length         38.9923 bohr
 
 
     Magnetic moment per site:
     atom:    1    charge:    3.9708    magn:    0.4218    constr:    0.0000
     atom:    2    charge:    3.9710    magn:    0.4254    constr:    0.0000
     atom:    3    charge:    3.9695    magn:    0.3958    constr:    0.0000
     atom:    4    charge:    3.9636    magn:    0.5335    constr:    0.0000
     atom:    5    charge:    3.9711    magn:    0.4217    constr:    0.0000
     atom:    6    charge:    3.9709    magn:    0.4252    constr:    0.0000
     atom:    7    charge:    3.9694    magn:    0.4000    constr:    0.0000
     atom:    8    charge:    3.9633    magn:    0.5348    constr:    0.0000
     atom:    9    charge:    3.9717    magn:    0.4212    constr:    0.0000
     atom:   10    charge:    3.9704    magn:    0.4254    constr:    0.0000
     atom:   11    charge:    3.9687    magn:    0.3983    constr:    0.0000
     atom:   12    charge:    3.9632    magn:    0.5188    constr:    0.0000
     atom:   13    charge:    3.9722    magn:    0.4211    constr:    0.0000
     atom:   14    charge:    3.9711    magn:    0.4246    constr:    0.0000
     atom:   15    charge:    3.9683    magn:    0.4014    constr:    0.0000
     atom:   16    charge:    3.9627    magn:    0.5195    constr:    0.0000
     atom:   17    charge:    3.9724    magn:    0.4207    constr:    0.0000
     atom:   18    charge:    3.9704    magn:    0.4246    constr:    0.0000
     atom:   19    charge:    3.9680    magn:    0.4022    constr:    0.0000
     atom:   20    charge:    3.9639    magn:    0.5171    constr:    0.0000
     atom:   21    charge:    3.9723    magn:    0.4209    constr:    0.0000
     atom:   22    charge:    3.9706    magn:    0.4249    constr:    0.0000
     atom:   23    charge:    3.9681    magn:    0.3991    constr:    0.0000
     atom:   24    charge:    3.9630    magn:    0.5158    constr:    0.0000
     atom:   25    charge:    3.9719    magn:    0.4210    constr:    0.0000
     atom:   26    charge:    3.9715    magn:    0.4258    constr:    0.0000
     atom:   27    charge:    3.9692    magn:    0.3963    constr:    0.0000
     atom:   28    charge:    3.9623    magn:    0.5025    constr:    0.0000
     atom:   29    charge:    3.9724    magn:    0.4207    constr:    0.0000
     atom:   30    charge:    3.9713    magn:    0.4249    constr:    0.0000
     atom:   31    charge:    3.9686    magn:    0.3961    constr:    0.0000
     atom:   32    charge:    3.9623    magn:    0.5154    constr:    0.0000
     atom:   33    charge:    3.9725    magn:    0.4207    constr:    0.0000
     atom:   34    charge:    3.9711    magn:    0.4256    constr:    0.0000
     atom:   35    charge:    3.9692    magn:    0.3988    constr:    0.0000
     atom:   36    charge:    3.9615    magn:    0.5046    constr:    0.0000
     atom:   37    charge:    2.0490    magn:    0.2969    constr:    0.0000
     atom:   38    charge:    2.0480    magn:    0.2862    constr:    0.0000
     atom:   39    charge:    2.0495    magn:    0.2876    constr:    0.0000
     atom:   40    charge:    2.0492    magn:    0.2933    constr:    0.0000
     atom:   41    charge:    2.0499    magn:    0.2937    constr:    0.0000
     atom:   42    charge:    2.0506    magn:    0.2914    constr:    0.0000
     atom:   43    charge:    2.0477    magn:    0.2914    constr:    0.0000
     atom:   44    charge:    2.0508    magn:    0.2909    constr:    0.0000
     atom:   45    charge:    2.0483    magn:    0.2921    constr:    0.0000

     total cpu time spent up to now is     1065.8 secs

     total energy              =   -3925.45882138 Ry
     Harris-Foulkes estimate   =   -3925.49045652 Ry
     estimated scf accuracy    <       3.73963073 Ry

     total magnetization       =    22.75 Bohr mag/cell
     absolute magnetization    =    27.44 Bohr mag/cell

     iteration # 13     ecut=    44.10 Ry     beta=0.10
     Davidson diagonalization with overlap
     ethr =  2.54E-04,  avg # of iterations =  1.0

     negative rho (up, down):  7.140E-04 7.371E-04
 
     Adding external electric field

     Computed dipole along edir(3) : 
        Dipole               -1.2785 Ry au,         -3.2497 Debye
        Dipole field         -0.0023 Ry au
 
        Potential amp.        0.1778 Ry
        Total length         38.9923 bohr
 
 
     Adding external electric field

     Computed dipole along edir(3) : 
        Dipole               -1.2785 Ry au,         -3.2497 Debye
        Dipole field         -0.0023 Ry au
 
        Potential amp.        0.1778 Ry
        Total length         38.9923 bohr
 
 
     Magnetic moment per site:
     atom:    1    charge:    3.9724    magn:    0.3803    constr:    0.0000
     atom:    2    charge:    3.9728    magn:    0.3813    constr:    0.0000
     atom:    3    charge:    3.9687    magn:    0.3504    constr:    0.0000
     atom:    4    charge:    3.9608    magn:    0.4600    constr:    0.0000
     atom:    5    charge:    3.9723    magn:    0.3805    constr:    0.0000
     atom:    6    charge:    3.9728    magn:    0.3809    constr:    0.0000
     atom:    7    charge:    3.9688    magn:    0.3549    constr:    0.0000
     atom:    8    charge:    3.9605    magn:    0.4619    constr:    0.0000
     atom:    9    charge:    3.9721    magn:    0.3804    constr:    0.0000
     atom:   10    charge:    3.9727    magn:    0.3810    constr:    0.0000
     atom:   11    charge:    3.9688    magn:    0.3526    constr:    0.0000
     atom:   12    charge:    3.9608    magn:    0.4400    constr:    0.0000
     atom:   13    charge:    3.9719    magn:    0.3809    constr:    0.0000
     atom:   14    charge:    3.9730    magn:    0.3803    constr:    0.0000
     atom:   15    charge:    3.9683    magn:    0.3560    constr:    0.0000
     atom:   16    charge:    3.9604    magn:    0.4412    constr:    0.0000
     atom:   17    charge:    3.9719    magn:    0.3805    constr:    0.0000
     atom:   18    charge:    3.9730    magn:    0.3797    constr:    0.0000
     atom:   19    charge:    3.9680    magn:    0.3571    constr:    0.0000
     atom:   20    charge:    3.9607    magn:    0.4379    constr:    0.0000
     atom:   21    charge:    3.9718    magn:    0.3808    constr:    0.0000
     atom:   22    charge:    3.9728    magn:    0.3804    constr:    0.0000
     atom:   23    charge:    3.9682    magn:    0.3534    constr:    0.0000
     atom:   24    charge:    3.9608    magn:    0.4363    constr:    0.0000
     atom:   25    charge:    3.9720    magn:    0.3804    constr:    0.0000
     atom:   26    charge:    3.9727    magn:    0.3821    constr:    0.0000
     atom:   27    charge:    3.9686    magn:    0.3505    constr:    0.0000
     atom:   28    charge:    3.9597    magn:    0.4180    constr:    0.0000
     atom:   29    charge:    3.9718    magn:    0.3804    constr:    0.0000
     atom:   30    charge:    3.9730    magn:    0.3808    constr:    0.0000
     atom:   31    charge:    3.9686    magn:    0.3500    constr:    0.0000
     atom:   32    charge:    3.9608    magn:    0.4356    constr:    0.0000
     atom:   33    charge:    3.9718    magn:    0.3806    constr:    0.0000
     atom:   34    charge:    3.9728    magn:    0.3816    constr:    0.0000
     atom:   35    charge:    3.9687    magn:    0.3534    constr:    0.0000
     atom:   36    charge:    3.9602    magn:    0.4224    constr:    0.0000
     atom:   37    charge:    2.0382    magn:    0.2358    constr:    0.0000
     atom:   38    charge:    2.0364    magn:    0.2238    constr:    0.0000
     atom:   39    charge:    2.0382    magn:    0.2255    constr:    0.0000
     atom:   40    charge:    2.0384    magn:    0.2315    constr:    0.0000
     atom:   41    charge:    2.0386    magn:    0.2325    constr:    0.0000
     atom:   42    charge:    2.0389    magn:    0.2296    constr:    0.0000
     atom:   43    charge:    2.0365    magn:    0.2292    constr:    0.0000
     atom:   44    charge:    2.0389    magn:    0.2290    constr:    0.0000
     atom:   45    charge:    2.0368    magn:    0.2304    constr:    0.0000

     total cpu time spent up to now is     1141.2 secs

     total energy              =   -3925.44384029 Ry
     Harris-Foulkes estimate   =   -3925.47792008 Ry
     estimated scf accuracy    <       3.17670540 Ry

     total magnetization       =    21.18 Bohr mag/cell
     absolute magnetization    =    25.92 Bohr mag/cell

     iteration # 14     ecut=    44.10 Ry     beta=0.10
     Davidson diagonalization with overlap
     ethr =  2.54E-04,  avg # of iterations =  1.0

     negative rho (up, down):  6.650E-04 7.029E-04
 
     Adding external electric field

     Computed dipole along edir(3) : 
        Dipole               -1.2618 Ry au,         -3.2073 Debye
        Dipole field         -0.0023 Ry au
 
        Potential amp.        0.1755 Ry
        Total length         38.9923 bohr
 
 
     Adding external electric field

     Computed dipole along edir(3) : 
        Dipole               -1.2618 Ry au,         -3.2073 Debye
        Dipole field         -0.0023 Ry au
 
        Potential amp.        0.1755 Ry
        Total length         38.9923 bohr
 
 
     Magnetic moment per site:
     atom:    1    charge:    3.9732    magn:    0.3650    constr:    0.0000
     atom:    2    charge:    3.9721    magn:    0.3636    constr:    0.0000
     atom:    3    charge:    3.9693    magn:    0.3314    constr:    0.0000
     atom:    4    charge:    3.9602    magn:    0.4168    constr:    0.0000
     atom:    5    charge:    3.9736    magn:    0.3651    constr:    0.0000
     atom:    6    charge:    3.9725    magn:    0.3630    constr:    0.0000
     atom:    7    charge:    3.9695    magn:    0.3360    constr:    0.0000
     atom:    8    charge:    3.9602    magn:    0.4189    constr:    0.0000
     atom:    9    charge:    3.9732    magn:    0.3650    constr:    0.0000
     atom:   10    charge:    3.9720    magn:    0.3633    constr:    0.0000
     atom:   11    charge:    3.9687    magn:    0.3340    constr:    0.0000
     atom:   12    charge:    3.9596    magn:    0.3933    constr:    0.0000
     atom:   13    charge:    3.9731    magn:    0.3655    constr:    0.0000
     atom:   14    charge:    3.9727    magn:    0.3623    constr:    0.0000
     atom:   15    charge:    3.9688    magn:    0.3373    constr:    0.0000
     atom:   16    charge:    3.9593    magn:    0.3951    constr:    0.0000
     atom:   17    charge:    3.9734    magn:    0.3648    constr:    0.0000
     atom:   18    charge:    3.9725    magn:    0.3619    constr:    0.0000
     atom:   19    charge:    3.9691    magn:    0.3382    constr:    0.0000
     atom:   20    charge:    3.9596    magn:    0.3912    constr:    0.0000
     atom:   21    charge:    3.9728    magn:    0.3654    constr:    0.0000
     atom:   22    charge:    3.9722    magn:    0.3627    constr:    0.0000
     atom:   23    charge:    3.9687    magn:    0.3346    constr:    0.0000
     atom:   24    charge:    3.9596    magn:    0.3895    constr:    0.0000
     atom:   25    charge:    3.9737    magn:    0.3646    constr:    0.0000
     atom:   26    charge:    3.9726    magn:    0.3641    constr:    0.0000
     atom:   27    charge:    3.9694    magn:    0.3311    constr:    0.0000
     atom:   28    charge:    3.9597    magn:    0.3682    constr:    0.0000
     atom:   29    charge:    3.9741    magn:    0.3642    constr:    0.0000
     atom:   30    charge:    3.9728    magn:    0.3629    constr:    0.0000
     atom:   31    charge:    3.9690    magn:    0.3308    constr:    0.0000
     atom:   32    charge:    3.9595    magn:    0.3885    constr:    0.0000
     atom:   33    charge:    3.9735    magn:    0.3648    constr:    0.0000
     atom:   34    charge:    3.9719    magn:    0.3641    constr:    0.0000
     atom:   35    charge:    3.9690    magn:    0.3345    constr:    0.0000
     atom:   36    charge:    3.9595    magn:    0.3747    constr:    0.0000
     atom:   37    charge:    2.0339    magn:    0.2036    constr:    0.0000
     atom:   38    charge:    2.0316    magn:    0.1910    constr:    0.0000
     atom:   39    charge:    2.0337    magn:    0.1929    constr:    0.0000
     atom:   40    charge:    2.0347    magn:    0.1990    constr:    0.0000
     atom:   41    charge:    2.0342    magn:    0.2004    constr:    0.0000
     atom:   42    charge:    2.0339    magn:    0.1970    constr:    0.0000
     atom:   43    charge:    2.0322    magn:    0.1965    constr:    0.0000
     atom:   44    charge:    2.0341    magn:    0.1966    constr:    0.0000
     atom:   45    charge:    2.0321    magn:    0.1981    constr:    0.0000

     total cpu time spent up to now is     1216.3 secs

     total energy              =   -3925.46809768 Ry
     Harris-Foulkes estimate   =   -3925.46850743 Ry
     estimated scf accuracy    <       0.61037989 Ry

     total magnetization       =    21.03 Bohr mag/cell
     absolute magnetization    =    25.80 Bohr mag/cell

     iteration # 15     ecut=    44.10 Ry     beta=0.10
     Davidson diagonalization with overlap
     ethr =  1.47E-04,  avg # of iterations =  1.0

     negative rho (up, down):  6.147E-04 6.305E-04
 
     Adding external electric field

     Computed dipole along edir(3) : 
        Dipole               -1.2770 Ry au,         -3.2459 Debye
        Dipole field         -0.0023 Ry au
 
        Potential amp.        0.1776 Ry
        Total length         38.9923 bohr
 
 
     Adding external electric field

     Computed dipole along edir(3) : 
        Dipole               -1.2770 Ry au,         -3.2459 Debye
        Dipole field         -0.0023 Ry au
 
        Potential amp.        0.1776 Ry
        Total length         38.9923 bohr
 
 
     Magnetic moment per site:
     atom:    1    charge:    3.9735    magn:    0.3696    constr:    0.0000
     atom:    2    charge:    3.9718    magn:    0.3673    constr:    0.0000
     atom:    3    charge:    3.9694    magn:    0.3350    constr:    0.0000
     atom:    4    charge:    3.9599    magn:    0.4090    constr:    0.0000
     atom:    5    charge:    3.9730    magn:    0.3702    constr:    0.0000
     atom:    6    charge:    3.9709    magn:    0.3674    constr:    0.0000
     atom:    7    charge:    3.9691    magn:    0.3399    constr:    0.0000
     atom:    8    charge:    3.9601    magn:    0.4113    constr:    0.0000
     atom:    9    charge:    3.9734    magn:    0.3697    constr:    0.0000
     atom:   10    charge:    3.9715    magn:    0.3671    constr:    0.0000
     atom:   11    charge:    3.9703    magn:    0.3370    constr:    0.0000
     atom:   12    charge:    3.9595    magn:    0.3845    constr:    0.0000
     atom:   13    charge:    3.9733    magn:    0.3702    constr:    0.0000
     atom:   14    charge:    3.9710    magn:    0.3668    constr:    0.0000
     atom:   15    charge:    3.9688    magn:    0.3410    constr:    0.0000
     atom:   16    charge:    3.9591    magn:    0.3864    constr:    0.0000
     atom:   17    charge:    3.9732    magn:    0.3698    constr:    0.0000
     atom:   18    charge:    3.9708    magn:    0.3664    constr:    0.0000
     atom:   19    charge:    3.9679    magn:    0.3425    constr:    0.0000
     atom:   20    charge:    3.9593    magn:    0.3823    constr:    0.0000
     atom:   21    charge:    3.9736    magn:    0.3698    constr:    0.0000
     atom:   22    charge:    3.9710    magn:    0.3669    constr:    0.0000
     atom:   23    charge:    3.9687    magn:    0.3384    constr:    0.0000
     atom:   24    charge:    3.9599    magn:    0.3806    constr:    0.0000
     atom:   25    charge:    3.9727    magn:    0.3699    constr:    0.0000
     atom:   26    charge:    3.9716    magn:    0.3681    constr:    0.0000
     atom:   27    charge:    3.9692    magn:    0.3347    constr:    0.0000
     atom:   28    charge:    3.9582    magn:    0.3578    constr:    0.0000
     atom:   29    charge:    3.9723    magn:    0.3701    constr:    0.0000
     atom:   30    charge:    3.9713    magn:    0.3672    constr:    0.0000
     atom:   31    charge:    3.9691    magn:    0.3344    constr:    0.0000
     atom:   32    charge:    3.9599    magn:    0.3795    constr:    0.0000
     atom:   33    charge:    3.9731    magn:    0.3698    constr:    0.0000
     atom:   34    charge:    3.9723    magn:    0.3674    constr:    0.0000
     atom:   35    charge:    3.9699    magn:    0.3377    constr:    0.0000
     atom:   36    charge:    3.9593    magn:    0.3653    constr:    0.0000
     atom:   37    charge:    2.0333    magn:    0.2004    constr:    0.0000
     atom:   38    charge:    2.0310    magn:    0.1879    constr:    0.0000
     atom:   39    charge:    2.0331    magn:    0.1898    constr:    0.0000
     atom:   40    charge:    2.0339    magn:    0.1957    constr:    0.0000
     atom:   41    charge:    2.0336    magn:    0.1974    constr:    0.0000
     atom:   42    charge:    2.0333    magn:    0.1939    constr:    0.0000
     atom:   43    charge:    2.0315    magn:    0.1932    constr:    0.0000
     atom:   44    charge:    2.0333    magn:    0.1934    constr:    0.0000
     atom:   45    charge:    2.0315    magn:    0.1950    constr:    0.0000

     total cpu time spent up to now is     1291.8 secs

     total energy              =   -3925.47768300 Ry
     Harris-Foulkes estimate   =   -3925.47400571 Ry
     estimated scf accuracy    <       0.06297532 Ry

     total magnetization       =    21.61 Bohr mag/cell
     absolute magnetization    =    26.19 Bohr mag/cell

     iteration # 16     ecut=    44.10 Ry     beta=0.10
     Davidson diagonalization with overlap
     ethr =  1.52E-05,  avg # of iterations =  7.3

[...]
     1.0678   1.0720   1.0727   1.1576   1.1597   1.2371   1.2372   1.2387
     1.2389   1.2391   1.2393   1.3622   1.3668   1.5977   1.5977   1.6569
     1.6571   1.6573   1.6574   1.6577   1.6579   1.7136   1.7142   1.7150
     1.7152   1.7163   1.7171   1.7269   1.7447   1.7501   1.7503   1.9898
     1.9956   2.0296   2.0302   2.0306   2.0312   2.0319   2.0325   2.0589
     2.0590   2.0601   2.0603   2.0604   2.0605   2.1672   2.1679   2.1683
     2.1689   2.1695   2.1701   2.2462   2.2817   2.2818   2.2818   2.2818
     2.2820   2.2820   2.3294   2.3294   2.3589   2.3590   2.4025   2.4054
     2.4242   2.4249   2.4439   2.4440   2.4440   2.4443   2.4448   2.4450
     2.8022   2.8025   2.8027   2.8032   2.8039   2.8041   2.8056   2.8066
     2.9086   2.9089   2.9117   2.9123   2.9125   2.9142   3.0414   3.0468
     4.5331   4.5353   4.5361   4.5375   4.5432   4.5451   6.7550   7.0497
     7.0513   7.0524   7.0533   7.0609   7.0618   7.1282   7.1284   7.4810
     7.4810   7.7932   7.7933   8.2664   8.2665   8.2673   8.4049   8.9361
     8.9403   9.0918   9.0922   9.5766   9.7480   9.7482   9.7492   9.7509
     9.7511   9.7514  10.1164  10.1169  10.4210  10.7363  10.7370  10.7380
    10.7384  10.7388  10.7393  11.4795  11.4812  11.4822  11.4838  11.4987
    11.5006  11.6116  11.6118  11.7913  11.7919  11.7926  11.7931  11.7991
    11.7995  12.0672  12.0678  12.4575  12.6578  12.6583  12.6590  12.6594
    12.6712  12.6718  12.9336  12.9357  12.9407  12.9435  12.9449  12.9459
    13.1284  13.7971  13.7983

          k = 0.0000 0.0510 0.0000 ( 34862 PWs)   bands (ev):

   -18.0631 -17.6295 -17.2759 -17.2699 -16.8003 -16.7950 -16.6973 -16.5408
   -16.5360  -5.7964  -5.2238  -4.8966  -4.8954  -4.8696  -4.7960  -4.7934
    -4.7636  -4.3143  -4.3131  -4.0344  -3.7664  -3.7653  -3.7006  -3.6599
    -3.1788  -3.1735  -3.1417  -3.1414  -3.0490  -2.9892  -2.9884  -2.7360
    -2.7329  -2.7002  -2.6956  -2.6947  -2.6299  -2.5975  -2.5936  -2.4133
    -2.2554  -2.2176  -2.0676  -1.9703  -1.9699  -1.9252  -1.9130  -1.9106
    -1.6561  -1.5507  -1.5502  -1.4238  -1.4219  -1.4212  -1.1899  -1.1882
    -1.1218  -1.0836  -1.0833  -1.0624  -1.0623  -0.9887  -0.9694  -0.9687
    -0.8592  -0.8585  -0.8087  -0.8084  -0.7722  -0.6531  -0.6527  -0.6205
    -0.5554  -0.5547  -0.5347  -0.4865  -0.4858  -0.4099  -0.4093  -0.3880
    -0.3874  -0.3481  -0.3465  -0.3311  -0.2874  -0.2315  -0.2313  -0.2277
    -0.2272  -0.1464  -0.1461  -0.1032  -0.0678  -0.0186  -0.0139  -0.0137
     0.0331   0.0564   0.0836   0.0839   0.1999   0.2004   0.2037   0.2041
     0.2448   0.3281   0.3444   0.3450   0.3584   0.3900   0.3952   0.4236
     0.5409   0.5411   0.5916   0.5949   0.5951   0.6271   0.6279   0.6539
     0.6789   0.6835   0.7109   0.7323   0.7467   0.7483   0.8061   0.8213
     0.8214   0.8307   0.8326   0.9140   0.9141   0.9207   0.9211   0.9224
     0.9293   0.9670   0.9989   1.0090   1.0198   1.0442   1.0449   1.0637
     1.0641   1.1648   1.2021   1.2028   1.2192   1.2279   1.2318   1.2365
     1.3232   1.3238   1.3316   1.3322   1.3335   1.3525   1.4064   1.4074
     1.5384   1.5550   1.5552   1.5807   1.5809   1.5813   1.5818   1.6226
     1.6239   1.6910   1.7100   1.7217   1.7221   1.7620   1.7699   1.7769
     1.8260   1.8261   1.8924   1.8925   1.9948   2.0022   2.0050   2.0057
     2.0636   2.0638   2.1493   2.1499   2.1532   2.1533   2.2160   2.2164
     2.2523   2.2787   2.3000   2.3002   2.3417   2.3422   2.3545   2.4084
     2.4177   2.4442   2.4446   2.4792   2.4893   2.4893   2.5029   2.5297
     2.5299   2.5434   2.5606   2.5609   2.6837   2.6850   2.6895   2.7046
     2.7068   2.7201   2.7209   2.7927   2.8586   2.8588   2.8656   2.9649
     3.0119   3.0422   3.1110   3.1111   3.4186   3.5678   3.6848   3.6851
     3.7134   4.1981   4.1990   4.8314   4.8316   5.1631   5.4119   5.5678
     5.5688   5.7059   5.7061   6.3983   6.3988   7.1289   7.2860   7.2864
     7.5815   8.1700   8.1722   8.2160   8.3161   8.3185   8.6058   8.7746
     8.9180   9.2508   9.2513   9.5092   9.5098   9.5124   9.5588   9.5600
     9.7680   9.8994   9.9194  10.4115  10.4134  10.5631  10.5647  10.5700
    10.5717  10.8088  10.9220  11.0304  11.0307  11.1786  11.1953  11.1954
    11.7349  11.7353  11.9122  11.9136  11.9388  12.0712  12.0718  12.5533
    12.5545  12.6123  12.6127  12.6960  12.8014  12.9687  12.9696  12.9803
    12.9814  13.1815  13.4144  13.4148  13.5715  13.7549  13.8018  13.8104
    13.8108  13.9054  13.9064

          k = 0.0442 0.0255 0.0000 ( 34862 PWs)   bands (ev):

   -18.0631 -17.6293 -17.2762 -17.2701 -16.8003 -16.7952 -16.6968 -16.5408
   -16.5362  -5.7965  -5.2239  -4.8974  -4.8959  -4.8699  -4.7968  -4.7938
    -4.7640  -4.3162  -4.3132  -4.0355  -3.7660  -3.7647  -3.7005  -3.6564
    -3.1780  -3.1718  -3.1405  -3.1393  -3.0521  -2.9888  -2.9854  -2.7354
    -2.7295  -2.6977  -2.6949  -2.6928  -2.6319  -2.5947  -2.5887  -2.4207
    -2.2607  -2.2237  -2.0684  -1.9711  -1.9705  -1.9249  -1.9107  -1.9075
    -1.6555  -1.5505  -1.5498  -1.4291  -1.4253  -1.4218  -1.1882  -1.1830
    -1.1260  -1.0847  -1.0736  -1.0632  -1.0626  -0.9937  -0.9707  -0.9682
    -0.8591  -0.8576  -0.8091  -0.8040  -0.7700  -0.6553  -0.6538  -0.6263
    -0.5553  -0.5548  -0.5328  -0.4874  -0.4827  -0.4063  -0.4037  -0.3926
    -0.3890  -0.3448  -0.3440  -0.3228  -0.2786  -0.2348  -0.2344  -0.2331
    -0.2292  -0.1531  -0.1482  -0.1053  -0.0645  -0.0185  -0.0145  -0.0132
     0.0424   0.0599   0.0755   0.0842   0.1972   0.2000   0.2014   0.2035
     0.2509   0.3316   0.3367   0.3416   0.3606   0.3871   0.3902   0.4223
     0.5375   0.5411   0.5935   0.5939   0.5965   0.6241   0.6303   0.6556
     0.6823   0.6832   0.7140   0.7330   0.7464   0.7505   0.8035   0.8169
     0.8196   0.8206   0.8234   0.9115   0.9131   0.9194   0.9217   0.9248
     0.9303   0.9624   0.9975   1.0076   1.0217   1.0453   1.0474   1.0637
     1.0648   1.1602   1.2047   1.2087   1.2185   1.2363   1.2386   1.2463
     1.3192   1.3215   1.3325   1.3329   1.3329   1.3537   1.3978   1.4078
     1.5395   1.5511   1.5545   1.5794   1.5810   1.5822   1.5848   1.6227
     1.6232   1.6815   1.7184   1.7205   1.7213   1.7660   1.7705   1.7768
     1.8230   1.8246   1.8923   1.8945   1.9953   1.9998   2.0039   2.0048
     2.0635   2.0636   2.1503   2.1511   2.1529   2.1529   2.2166   2.2171
     2.2522   2.2761   2.2998   2.3001   2.3406   2.3420   2.3543   2.4103
     2.4184   2.4439   2.4456   2.4815   2.4894   2.4908   2.5011   2.5312
     2.5326   2.5413   2.5615   2.5625   2.6829   2.6846   2.6896   2.7036
     2.7084   2.7176   2.7195   2.7965   2.8602   2.8612   2.8618   2.9649
     3.0156   3.0463   3.1098   3.1109   3.4105   3.5638   3.6801   3.6837
     3.7294   4.2038   4.2073   4.8310   4.8326   5.1571   5.4208   5.5653
     5.5696   5.6989   5.7072   6.4017   6.4056   7.1289   7.2747   7.2840
     7.5612   8.1691   8.1786   8.2158   8.3156   8.3308   8.6057   8.7744
     8.9024   9.2513   9.2516   9.5093   9.5118   9.5136   9.5594   9.5744
     9.7379   9.8990   9.9194  10.4126  10.4138  10.5650  10.5706  10.5862
    10.5962  10.8088  10.9214  11.0305  11.0312  11.1696  11.1864  11.1949
    11.7349  11.7406  11.9130  11.9152  11.9381  12.0646  12.0733  12.5534
    12.5708  12.5936  12.6056  12.7037  12.8013  12.9477  12.9692  12.9811
    12.9842  13.2032  13.4009  13.4147  13.5715  13.7531  13.7842  13.8104
    13.8243  13.9087  13.9121

          k = 0.0442 0.0765 0.0000 ( 34881 PWs)   bands (ev):

   -17.7677 -17.7650 -17.7612 -16.8463 -16.8400 -16.8340 -16.6010 -16.5957
   -16.5911  -5.1563  -5.1548  -5.1521  -5.0731  -5.0717  -5.0692  -4.5767
    -4.5740  -4.5719  -4.2541  -4.2537  -4.2515  -3.5746  -3.5729  -3.5697
    -3.1713  -3.1685  -3.1662  -2.9804  -2.9789  -2.9753  -2.8694  -2.8666
    -2.8651  -2.8011  -2.7964  -2.7924  -2.6755  -2.6726  -2.6658  -2.2825
    -2.2782  -2.2755  -1.9368  -1.9362  -1.9358  -1.6596  -1.6570  -1.6566
    -1.5575  -1.5553  -1.5543  -1.4246  -1.4244  -1.4239  -1.2393  -1.2368
    -1.2352  -1.1833  -1.1832  -1.1822  -0.9978  -0.9973  -0.9919  -0.9273
    -0.9267  -0.9246  -0.8077  -0.8017  -0.8014  -0.6478  -0.6460  -0.6424
    -0.5699  -0.5696  -0.5648  -0.4969  -0.4955  -0.4886  -0.4000  -0.3974
    -0.3965  -0.2753  -0.2752  -0.2712  -0.2265  -0.2247  -0.2209  -0.1841
    -0.1827  -0.1819  -0.1483  -0.1466  -0.1430  -0.1184  -0.1095  -0.1090
     0.1644   0.1646   0.1659   0.1662   0.1670   0.1679   0.3176   0.3180
     0.3194   0.3386   0.3413   0.3417   0.3445   0.3451   0.3452   0.5526
     0.5528   0.5528   0.5726   0.5746   0.5762   0.6407   0.6454   0.6456
     0.6505   0.6522   0.6536   0.7769   0.7783   0.7789   0.7793   0.7818
     0.7831   0.8124   0.8133   0.8186   0.9045   0.9051   0.9092   0.9382
     0.9391   0.9399   1.0133   1.0137   1.0206   1.0462   1.0480   1.0486
     1.1791   1.1881   1.1884   1.2304   1.2307   1.2316   1.2367   1.2370
     1.2379   1.2699   1.2720   1.2724   1.3536   1.3541   1.3590   1.5259
     1.5276   1.5277   1.5598   1.5605   1.5612   1.5975   1.5980   1.6021
     1.6130   1.6133   1.6147   1.6526   1.6529   1.6533   1.8127   1.8182
     1.8186   1.8508   1.8512   1.8513   1.9608   1.9690   1.9694   2.0516
     2.0522   2.0553   2.0753   2.0756   2.0768   2.1808   2.1810   2.1819
     2.2884   2.2886   2.2894   2.4158   2.4158   2.4163   2.4608   2.4614
     2.4630   2.4837   2.4838   2.4889   2.5459   2.5474   2.5492   2.5494
     2.5500   2.5506   2.5523   2.5528   2.5548   2.6453   2.6459   2.6512
     2.6712   2.6754   2.6760   2.8142   2.8148   2.8173   3.2286   3.2288
     3.2293   3.3089   3.3133   3.3140   3.8175   3.8184   3.8193   4.1824
     4.1826   4.1846   4.7049   4.7091   4.7102   5.0039   5.0277   5.0280
     5.5660   5.5805   5.5806   5.5853   5.5908   5.5920   7.4921   7.4932
     7.5229   7.8607   7.8612   7.8617   8.1760   8.1818   8.1825   8.9028
     8.9031   8.9217   9.2219   9.2234   9.2250   9.5246   9.5255   9.5260
     9.7745   9.7756   9.8012  10.5902  10.5912  10.5925  10.7590  10.7598
    10.7608  11.5374  11.5398  11.5578  11.5716  11.5722  11.5727  11.7101
    11.7130  11.7133  12.0613  12.0634  12.0636  12.3810  12.4119  12.4126
    12.5115  12.5227  12.5239  12.9070  12.9094  12.9099  13.4483  13.4490
    13.4550  13.4554  13.4561  13.4571  13.6863  13.6987  13.6988  14.0511
    14.0527  14.0647  14.1150

          k = 0.0442-0.0255 0.0000 ( 34862 PWs)   bands (ev):

   -18.0631 -17.6293 -17.2750 -17.2712 -16.7999 -16.7956 -16.6969 -16.5407
   -16.5363  -5.7965  -5.2239  -4.8970  -4.8960  -4.8699  -4.7964  -4.7940
    -4.7640  -4.3154  -4.3137  -4.0355  -3.7666  -3.7642  -3.7006  -3.6568
    -3.1787  -3.1715  -3.1407  -3.1393  -3.0517  -2.9901  -2.9848  -2.7364
    -2.7291  -2.6984  -2.6947  -2.6926  -2.6323  -2.5952  -2.5893  -2.4193
    -2.2596  -2.2233  -2.0684  -1.9713  -1.9705  -1.9249  -1.9116  -1.9072
    -1.6555  -1.5505  -1.5498  -1.4290  -1.4254  -1.4216  -1.1882  -1.1830
    -1.1261  -1.0845  -1.0735  -1.0632  -1.0624  -0.9938  -0.9707  -0.9678
    -0.8591  -0.8572  -0.8091  -0.8040  -0.7700  -0.6553  -0.6536  -0.6264
    -0.5555  -0.5545  -0.5327  -0.4873  -0.4826  -0.4063  -0.4037  -0.3926
    -0.3890  -0.3451  -0.3430  -0.3230  -0.2786  -0.2349  -0.2345  -0.2328
    -0.2292  -0.1531  -0.1483  -0.1048  -0.0648  -0.0185  -0.0144  -0.0131
     0.0419   0.0599   0.0755   0.0841   0.1971   0.2001   0.2013   0.2034
     0.2509   0.3315   0.3366   0.3416   0.3605   0.3866   0.3916   0.4218
     0.5376   0.5412   0.5936   0.5938   0.5965   0.6240   0.6303   0.6556
     0.6823   0.6831   0.7140   0.7329   0.7463   0.7505   0.8032   0.8169
     0.8197   0.8203   0.8232   0.9115   0.9131   0.9195   0.9217   0.9248
     0.9303   0.9624   0.9974   1.0076   1.0218   1.0453   1.0475   1.0637
     1.0648   1.1601   1.2048   1.2088   1.2186   1.2362   1.2386   1.2464
     1.3192   1.3215   1.3325   1.3328   1.3330   1.3537   1.3977   1.4077
     1.5395   1.5511   1.5545   1.5794   1.5810   1.5822   1.5848   1.6228
     1.6231   1.6815   1.7184   1.7205   1.7213   1.7660   1.7705   1.7768
     1.8230   1.8246   1.8923   1.8945   1.9952   1.9997   2.0039   2.0048
     2.0635   2.0636   2.1503   2.1510   2.1529   2.1530   2.2166   2.2171
     2.2521   2.2761   2.2998   2.3001   2.3407   2.3420   2.3543   2.4103
     2.4184   2.4439   2.4455   2.4815   2.4895   2.4908   2.5012   2.5313
     2.5327   2.5413   2.5616   2.5625   2.6830   2.6849   2.6896   2.7035
     2.7086   2.7181   2.7195   2.7961   2.8602   2.8611   2.8623   2.9650
     3.0151   3.0458   3.1098   3.1109   3.4107   3.5638   3.6801   3.6837
     3.7295   4.2037   4.2072   4.8310   4.8326   5.1572   5.4209   5.5653
     5.5696   5.6990   5.7071   6.4016   6.4056   7.1289   7.2748   7.2839
     7.5616   8.1689   8.1786   8.2158   8.3155   8.3309   8.6057   8.7744
     8.9024   9.2512   9.2516   9.5093   9.5118   9.5136   9.5594   9.5744
     9.7379   9.8990   9.9193  10.4127  10.4135  10.5649  10.5710  10.5861
    10.5965  10.8088  10.9215  11.0303  11.0315  11.1693  11.1865  11.1950
    11.7350  11.7406  11.9130  11.9150  11.9382  12.0645  12.0734  12.5538
    12.5708  12.5936  12.6055  12.7038  12.8013  12.9478  12.9689  12.9813
    12.9841  13.2035  13.4009  13.4146  13.5715  13.7533  13.7838  13.8105
    13.8243  13.9086  13.9120

     the Fermi energy is     2.3436 ev

!    total energy              =   -3925.57422688 Ry
     Harris-Foulkes estimate   =   -3925.57422736 Ry
     estimated scf accuracy    <       0.00000069 Ry

     The total energy is the sum of the following terms:

     one-electron contribution =  -27239.18152133 Ry
     hartree contribution      =   14043.86887210 Ry
     xc contribution           =   -1585.17780991 Ry
     ewald contribution        =   10855.08433187 Ry
     electric field correction =       0.00186290 Ry
     smearing contrib. (-TS)   =      -0.16996251 Ry

     total magnetization       =    18.09 Bohr mag/cell
     absolute magnetization    =    20.85 Bohr mag/cell

     convergence has been achieved in  14 iterations

     Forces acting on atoms (Ry/au):


     negative rho (up, down):  3.772E-04 3.322E-04
     atom    1 type  1   force =    -0.00017847    0.00007338    0.00422802
     atom    2 type  1   force =    -0.00007386    0.00070022   -0.00523565
     atom    3 type  1   force =    -0.00068470    0.00014843    0.00023138
     atom    4 type  1   force =    -0.00092356   -0.00083003    0.00082622
     atom    5 type  1   force =     0.00003730   -0.00000538    0.00429768
     atom    6 type  1   force =     0.00003336    0.00064181   -0.00520198
     atom    7 type  1   force =    -0.00027383    0.00000684    0.00028180
     atom    8 type  1   force =    -0.00001854    0.00006261    0.00078733
     atom    9 type  1   force =    -0.00009162   -0.00005310    0.00420190
     atom   10 type  1   force =    -0.00001582    0.00041951   -0.00525012
     atom   11 type  1   force =     0.00035610    0.00018623    0.00019738
     atom   12 type  1   force =    -0.00039908   -0.00131482    0.00044022
     atom   13 type  1   force =     0.00003591    0.00004162    0.00411688
     atom   14 type  1   force =     0.00021490    0.00063335   -0.00503842
     atom   15 type  1   force =     0.00010026    0.00023141   -0.00016031
     atom   16 type  1   force =     0.00171444    0.00017879    0.00047310
     atom   17 type  1   force =    -0.00008971    0.00018777    0.00418695
     atom   18 type  1   force =     0.00001276    0.00071689   -0.00514243
     atom   19 type  1   force =    -0.00039927    0.00022059   -0.00015302
     atom   20 type  1   force =     0.00005375   -0.00074592    0.00009080
     atom   21 type  1   force =     0.00013822   -0.00003643    0.00416432
     atom   22 type  1   force =     0.00002507    0.00059064   -0.00515514
     atom   23 type  1   force =     0.00060150    0.00048019    0.00012287
     atom   24 type  1   force =    -0.00045489    0.00010995    0.00024574
     atom   25 type  1   force =     0.00014126    0.00000531    0.00426883
     atom   26 type  1   force =    -0.00002380    0.00058444   -0.00503555
     atom   27 type  1   force =     0.00012381    0.00062802    0.00009877
     atom   28 type  1   force =     0.00067834   -0.00138314   -0.00000045
     atom   29 type  1   force =     0.00005444    0.00015619    0.00424408
     atom   30 type  1   force =     0.00006096    0.00044183   -0.00502355
     atom   31 type  1   force =     0.00003011    0.00046493   -0.00003413
     atom   32 type  1   force =     0.00050577   -0.00088513   -0.00015228
     atom   33 type  1   force =    -0.00004866    0.00007074    0.00426027
     atom   34 type  1   force =    -0.00024897    0.00042862   -0.00520966
     atom   35 type  1   force =     0.00008327    0.00069906   -0.00008480
     atom   36 type  1   force =    -0.00028240    0.00095225    0.00133953
     atom   37 type  2   force =    -0.00040793    0.00064079    0.00154931
     atom   38 type  2   force =     0.00052687   -0.00065827    0.00002537
     atom   39 type  2   force =     0.00051487   -0.00003265    0.00051951
     atom   40 type  2   force =     0.00107738   -0.00087256    0.00066481
     atom   41 type  2   force =    -0.00066484   -0.00109193   -0.00004395
     atom   42 type  2   force =    -0.00058557   -0.00074989    0.00009735
     atom   43 type  2   force =    -0.00049285   -0.00082135    0.00072349
     atom   44 type  2   force =    -0.00062881   -0.00071187    0.00006907
     atom   45 type  2   force =    -0.00013349   -0.00050994    0.00016845

     Total force =     0.020777     Total SCF correction =     0.003263
     SCF correction compared to forces is large: reduce conv_thr to get better values
 !ASE

     Writing output data file calc.save
 
     init_run     :     29.48s CPU     34.38s WALL (       1 calls)
     electrons    :  21494.87s CPU  24772.94s WALL (       9 calls)
     update_pot   :     18.80s CPU     19.86s WALL (       8 calls)
     forces       :    435.24s CPU    449.51s WALL (       9 calls)

     Called by init_run:
     wfcinit      :     20.04s CPU     24.47s WALL (       1 calls)
     potinit      :      0.89s CPU      0.96s WALL (       1 calls)

     Called by electrons:
     c_bands      :  14534.99s CPU  17039.03s WALL (     297 calls)
     sum_band     :   5069.97s CPU   5716.39s WALL (     297 calls)
     v_of_rho     :    102.08s CPU    118.70s WALL (     306 calls)
     newd         :   1813.12s CPU   1920.14s WALL (     306 calls)
     mix_rho      :     20.07s CPU     24.25s WALL (     297 calls)

     Called by c_bands:
     init_us_2    :     74.56s CPU     78.76s WALL (    6040 calls)
     cegterg      :  14118.21s CPU  16605.09s WALL (    2970 calls)

     Called by *egterg:
     h_psi        :   7057.11s CPU   9016.53s WALL (    8180 calls)
     s_psi        :   1202.97s CPU   1248.48s WALL (    8180 calls)
     g_psi        :     27.57s CPU     28.23s WALL (    5200 calls)
     cdiaghg      :   2582.39s CPU   2640.87s WALL (    8090 calls)

     Called by h_psi:
     add_vuspsi   :   1213.42s CPU   1254.79s WALL (    8180 calls)

     General routines
     calbec       :   1882.72s CPU   1925.57s WALL (   11240 calls)
     fft          :     91.66s CPU    108.24s WALL (    9567 calls)
     ffts         :      1.51s CPU      2.08s WALL (    1206 calls)
     fftw         :   3766.04s CPU   6102.14s WALL ( 4824652 calls)
     interpolate  :     11.48s CPU     16.51s WALL (    1206 calls)
     davcio       :      0.00s CPU      0.42s WALL (      10 calls)
 
     Parallel routines
     fft_scatter  :   2183.48s CPU   3494.75s WALL ( 4835425 calls)
 
     PWSCF        :     6h 7m CPU        7h 2m WALL

 
   This run was terminated on:  22:46: 6  18Mar2017            

=------------------------------------------------------------------------------=
   JOB DONE.
=------------------------------------------------------------------------------=
