  python dir          : /home/vossj/suncat/lib/python2.7/site-packages/espresso
  espresso dir        : /home/vossj/suncat/esdld/espresso-dynpy-beef/bin
  pseudo dir          : /home/alatimer/bin/psp/esp_psp_w_gbrvRu/
  ase-espresso py git : ffa2778-git



     Program PWSCF v.5.1rc2 (svn rev. ) starts on 10Mar2017 at 14:57: 6 

     This program is part of the open-source Quantum ESPRESSO suite
     for quantum simulation of materials; please cite
         "P. Giannozzi et al., J. Phys.:Condens. Matter 21 395502 (2009);
          URL http://www.quantum-espresso.org", 
     in publications or presentations arising from this work. More details at
     http://www.quantum-espresso.org/quote

     Parallel version (MPI), running on    16 processors
     R & G space division:  proc/nbgrp/npool/nimage =      16
     Reading input from pw.inp
     Message from routine read_cards :
     DEPRECATED: no units specified in CELL_PARAMETERS card

     Current dimensions of program PWSCF are:
     Max number of different atomic species (ntypx) = 10
     Max number of k-points (npk) =  40000
     Max angular momentum in pseudopotentials (lmaxx) =  3
     Presently no symmetry can be used with electric field


     IMPORTANT: XC functional enforced from input :
     Exchange-correlation      = RPBE ( 1  4 28  4 0)
     Any further DFT definition will be discarded
     Please, verify this is what you really want

               file Ni.UPF: wavefunction(s)  3D renormalized

     Subspace diagonalization in iterative solution of the eigenvalue problem:
     a serial algorithm will be used

 
     Parallelization info
     --------------------
     sticks:   dense  smooth     PW     G-vecs:    dense   smooth      PW
     Min         386     154     42                68872    17389    2480
     Max         387     155     43                68885    17439    2491
     Sum        6181    2479    673              1102011   278611   39737
 
     Generating pointlists ...
     new r_m :   0.4125 (alat units)  0.7795 (a.u.) for type    1
     new r_m :   0.4125 (alat units)  0.7795 (a.u.) for type    2


     bravais-lattice index     =            0
     lattice parameter (alat)  =       1.8897  a.u.
     unit-cell volume          =    7046.4111 (a.u.)^3
     number of atoms/cell      =           37
     number of atomic types    =            2
     number of electrons       =       364.00
     number of Kohn-Sham states=          282
     kinetic-energy cutoff     =      44.0992  Ry
     charge density cutoff     =     440.9919  Ry
     convergence threshold     =      7.3E-07
     mixing beta               =       0.1000
     number of iterations used =           10  plain     mixing
     Exchange-correlation      = RPBE ( 1  4 28  4 0)
     nstep                     =           50


     celldm(1)=   1.889726  celldm(2)=   0.000000  celldm(3)=   0.000000
     celldm(4)=   0.000000  celldm(5)=   0.000000  celldm(6)=   0.000000

     crystal axes: (cart. coord. in units of alat)
               a(1) = (   7.548011   0.000000   0.000000 )  
               a(2) = (  -3.774005   6.536769   0.000000 )  
               a(3) = (   0.000000   0.000000  21.162925 )  

     reciprocal axes: (cart. coord. in units 2 pi/alat)
               b(1) = (  0.132485  0.076490  0.000000 )  
               b(2) = (  0.000000  0.152981  0.000000 )  
               b(3) = (  0.000000  0.000000  0.047252 )  


     PseudoPot. # 1 for Ni read from file:
     /home/alatimer/bin/psp/esp_psp_w_gbrvRu/Ni.UPF
     MD5 check sum: 8b2449ee0060d9c33484ccd47bb60870
     Pseudo is Ultrasoft + core correction, Zval = 10.0
     Generated using "atomic" code by A. Dal Corso  v.5.0.2 svn rev. 9415
     Using radial grid of 1195 points,  6 beta functions with: 
                l(1) =   0
                l(2) =   0
                l(3) =   1
                l(4) =   1
                l(5) =   2
                l(6) =   2
     Q(r) pseudized with 0 coefficients 


     PseudoPot. # 2 for  C read from file:
     /home/alatimer/bin/psp/esp_psp_w_gbrvRu/C.UPF
     MD5 check sum: ab446d787031eba755f1d5ee46644bb0
     Pseudo is Ultrasoft + core correction, Zval =  4.0
     Generated using "atomic" code by A. Dal Corso  v.5.0.2 svn rev. 9415
     Using radial grid of 1073 points,  4 beta functions with: 
                l(1) =   0
                l(2) =   0
                l(3) =   1
                l(4) =   1
     Q(r) pseudized with 0 coefficients 


     atomic species   valence    mass     pseudopotential
        Ni1           10.00    58.69340     Ni( 1.00)
        C1             4.00    12.01100      C( 1.00)

     Starting magnetic structure 
     atomic species   magnetization
        Ni1          0.300
        C1           0.750

     No symmetry found



   Cartesian axes

     site n.     atom                  positions (alat units)
         1           Ni1 tau(   1) = (   0.0000000   0.0000000   7.5000000  )
         2           Ni1 tau(   2) = (   1.2580018   0.7263077   9.5543084  )
         3           Ni1 tau(   3) = (   0.0000000   1.4526154  11.6086168  )
         4           Ni1 tau(   4) = (   1.2580018   2.1789231  13.6629252  )
         5           Ni1 tau(   5) = (  -1.2580018   2.1789231   7.5000000  )
         6           Ni1 tau(   6) = (   0.0000000   2.9052308   9.5543084  )
         7           Ni1 tau(   7) = (  -1.2580018   3.6315385  11.6086168  )
         8           Ni1 tau(   8) = (  -0.0000000   4.3578462  13.6629252  )
         9           Ni1 tau(   9) = (  -2.5160037   4.3578462   7.5000000  )
        10           Ni1 tau(  10) = (  -1.2580018   5.0841539   9.5543084  )
        11           Ni1 tau(  11) = (  -2.5160037   5.8104616  11.6086168  )
        12           Ni1 tau(  12) = (  -1.2580018   6.5367693  13.6629252  )
        13           Ni1 tau(  13) = (   2.5160037   0.0000000   7.5000000  )
        14           Ni1 tau(  14) = (   3.7740055   0.7263077   9.5543084  )
        15           Ni1 tau(  15) = (   2.5160037   1.4526154  11.6086168  )
        16           Ni1 tau(  16) = (   3.7740055   2.1789231  13.6629252  )
        17           Ni1 tau(  17) = (   1.2580018   2.1789231   7.5000000  )
        18           Ni1 tau(  18) = (   2.5160037   2.9052308   9.5543084  )
        19           Ni1 tau(  19) = (   1.2580018   3.6315385  11.6086168  )
        20           Ni1 tau(  20) = (   2.5160037   4.3578462  13.6629252  )
        21           Ni1 tau(  21) = (  -0.0000000   4.3578462   7.5000000  )
        22           Ni1 tau(  22) = (   1.2580018   5.0841539   9.5543084  )
        23           Ni1 tau(  23) = (  -0.0000000   5.8104616  11.6086168  )
        24           Ni1 tau(  24) = (   1.2580018   6.5367693  13.6629252  )
        25           Ni1 tau(  25) = (   5.0320073   0.0000000   7.5000000  )
        26           Ni1 tau(  26) = (   6.2900092   0.7263077   9.5543084  )
        27           Ni1 tau(  27) = (   5.0320073   1.4526154  11.6086168  )
        28           Ni1 tau(  28) = (   6.2900092   2.1789231  13.6629252  )
        29           Ni1 tau(  29) = (   3.7740055   2.1789231   7.5000000  )
        30           Ni1 tau(  30) = (   5.0320073   2.9052308   9.5543084  )
        31           Ni1 tau(  31) = (   3.7740055   3.6315385  11.6086168  )
        32           Ni1 tau(  32) = (   5.0320073   4.3578462  13.6629252  )
        33           Ni1 tau(  33) = (   2.5160037   4.3578462   7.5000000  )
        34           Ni1 tau(  34) = (   3.7740055   5.0841539   9.5543084  )
        35           Ni1 tau(  35) = (   2.5160037   5.8104616  11.6086168  )
        36           Ni1 tau(  36) = (   3.7740055   6.5367693  13.6629252  )
        37           C1  tau(  37) = (   3.1450046   3.2683846  14.8629252  )

     number of k points=    10  Fermi-Dirac smearing, width (Ry)=  0.0073
                       cart. coord. in units 2pi/alat
        k(    1) = (   0.0000000   0.0000000   0.0000000), wk =   0.1111111
        k(    2) = (   0.0000000   0.0509936   0.0000000), wk =   0.2222222
        k(    3) = (   0.0441617   0.0254968   0.0000000), wk =   0.2222222
        k(    4) = (   0.0441617   0.0764904   0.0000000), wk =   0.2222222
        k(    5) = (   0.0441617  -0.0254968   0.0000000), wk =   0.2222222
        k(    6) = (   0.0000000   0.0000000   0.0000000), wk =   0.1111111
        k(    7) = (   0.0000000   0.0509936   0.0000000), wk =   0.2222222
        k(    8) = (   0.0441617   0.0254968   0.0000000), wk =   0.2222222
        k(    9) = (   0.0441617   0.0764904   0.0000000), wk =   0.2222222
        k(   10) = (   0.0441617  -0.0254968   0.0000000), wk =   0.2222222

     Dense  grid:  1102011 G-vectors     FFT dimensions: (  96,  96, 270)

     Smooth grid:   278611 G-vectors     FFT dimensions: (  64,  64, 180)

     Largest allocated arrays     est. size (Mb)     dimensions
        Kohn-Sham Wavefunctions         9.39 Mb     (    2183,  282)
        NL pseudopotentials            21.85 Mb     (    2183,  656)
        Each V/rho on FFT grid          4.78 Mb     (  156672,   2)
        Each G-vector array             0.53 Mb     (   68874)
        G-vector shells                 0.19 Mb     (   24563)
     Largest temporary arrays     est. size (Mb)     dimensions
        Auxiliary wavefunctions        37.57 Mb     (    2183, 1128)
        Each subspace H/S matrix       19.42 Mb     (    1128, 1128)
        Each <psi_i|beta_j> matrix      2.82 Mb     (     656,  282)
        Arrays for rho mixing          23.91 Mb     (  156672,   10)

     Initial potential from superposition of free atoms
     Check: negative starting charge=(component1):   -0.000345
     Check: negative starting charge=(component2):   -0.000192

     starting charge  363.99092, renormalised to  364.00000

     negative rho (up, down):  3.452E-04 1.915E-04
 
     Adding external electric field

     Computed dipole along edir(3) : 
        Dipole               -0.0005 Ry au,         -0.0012 Debye
        Dipole field         -0.0000 Ry au
 
        Potential amp.        0.0001 Ry
        Total length         38.9923 bohr
 
 
     Adding external electric field

     Computed dipole along edir(3) : 
        Dipole               -0.0005 Ry au,         -0.0012 Debye
        Dipole field         -0.0000 Ry au
 
        Potential amp.        0.0001 Ry
        Total length         38.9923 bohr
 
     Starting wfc are  328 randomized atomic wfcs

     total cpu time spent up to now is       31.1 secs

     Self-consistent Calculation

     iteration #  1     ecut=    44.10 Ry     beta=0.10
     Davidson diagonalization with overlap
     ethr =  1.00E-02,  avg # of iterations =  6.9

     negative rho (up, down):  3.096E-04 1.671E-04
 
     Adding external electric field

     Computed dipole along edir(3) : 
        Dipole               -0.8541 Ry au,         -2.1710 Debye
        Dipole field         -0.0015 Ry au
 
        Potential amp.        0.1188 Ry
        Total length         38.9923 bohr
 
 
     Adding external electric field

     Computed dipole along edir(3) : 
        Dipole               -0.8541 Ry au,         -2.1710 Debye
        Dipole field         -0.0015 Ry au
 
        Potential amp.        0.1188 Ry
        Total length         38.9923 bohr
 
 
     Magnetic moment per site:
     atom:    1    charge:    3.9463    magn:    1.1287    constr:    0.0000
     atom:    2    charge:    3.9666    magn:    1.1128    constr:    0.0000
     atom:    3    charge:    3.9669    magn:    1.1119    constr:    0.0000
     atom:    4    charge:    3.9507    magn:    1.1243    constr:    0.0000
     atom:    5    charge:    3.9463    magn:    1.1287    constr:    0.0000
     atom:    6    charge:    3.9666    magn:    1.1128    constr:    0.0000
     atom:    7    charge:    3.9672    magn:    1.1121    constr:    0.0000
     atom:    8    charge:    3.9482    magn:    1.1275    constr:    0.0000
     atom:    9    charge:    3.9471    magn:    1.1278    constr:    0.0000
     atom:   10    charge:    3.9666    magn:    1.1129    constr:    0.0000
     atom:   11    charge:    3.9671    magn:    1.1121    constr:    0.0000
     atom:   12    charge:    3.9482    magn:    1.1275    constr:    0.0000
     atom:   13    charge:    3.9472    magn:    1.1278    constr:    0.0000
     atom:   14    charge:    3.9666    magn:    1.1128    constr:    0.0000
     atom:   15    charge:    3.9689    magn:    1.1109    constr:    0.0000
     atom:   16    charge:    3.9630    magn:    1.1076    constr:    0.0000
     atom:   17    charge:    3.9470    magn:    1.1277    constr:    0.0000
     atom:   18    charge:    3.9666    magn:    1.1126    constr:    0.0000
     atom:   19    charge:    3.9689    magn:    1.1109    constr:    0.0000
     atom:   20    charge:    3.9630    magn:    1.1076    constr:    0.0000
     atom:   21    charge:    3.9472    magn:    1.1278    constr:    0.0000
     atom:   22    charge:    3.9666    magn:    1.1129    constr:    0.0000
     atom:   23    charge:    3.9670    magn:    1.1125    constr:    0.0000
     atom:   24    charge:    3.9482    magn:    1.1271    constr:    0.0000
     atom:   25    charge:    3.9475    magn:    1.1277    constr:    0.0000
     atom:   26    charge:    3.9668    magn:    1.1119    constr:    0.0000
     atom:   27    charge:    3.9692    magn:    1.1097    constr:    0.0000
     atom:   28    charge:    3.9480    magn:    1.1279    constr:    0.0000
     atom:   29    charge:    3.9470    magn:    1.1279    constr:    0.0000
     atom:   30    charge:    3.9665    magn:    1.1128    constr:    0.0000
     atom:   31    charge:    3.9698    magn:    1.1101    constr:    0.0000
     atom:   32    charge:    3.9512    magn:    1.1242    constr:    0.0000
     atom:   33    charge:    3.9470    magn:    1.1279    constr:    0.0000
     atom:   34    charge:    3.9665    magn:    1.1128    constr:    0.0000
     atom:   35    charge:    3.9692    magn:    1.1097    constr:    0.0000
     atom:   36    charge:    3.9480    magn:    1.1279    constr:    0.0000
     atom:   37    charge:    0.5821    magn:    0.4015    constr:    0.0000

     total cpu time spent up to now is      153.6 secs

     total energy              =   -3632.12878797 Ry
     Harris-Foulkes estimate   =   -3632.96443497 Ry
     estimated scf accuracy    <       9.58100522 Ry

     total magnetization       =    37.14 Bohr mag/cell
     absolute magnetization    =    37.16 Bohr mag/cell

     iteration #  2     ecut=    44.10 Ry     beta=0.10
     Davidson diagonalization with overlap
     ethr =  2.63E-03,  avg # of iterations =  2.6

     negative rho (up, down):  3.063E-04 1.887E-04
 
     Adding external electric field

     Computed dipole along edir(3) : 
        Dipole                0.5824 Ry au,          1.4804 Debye
        Dipole field          0.0010 Ry au
 
        Potential amp.       -0.0810 Ry
        Total length         38.9923 bohr
 
 
     Adding external electric field

     Computed dipole along edir(3) : 
        Dipole                0.5824 Ry au,          1.4804 Debye
        Dipole field          0.0010 Ry au
 
        Potential amp.       -0.0810 Ry
        Total length         38.9923 bohr
 
 
     Magnetic moment per site:
     atom:    1    charge:    3.9595    magn:    1.1086    constr:    0.0000
     atom:    2    charge:    3.9640    magn:    1.1034    constr:    0.0000
     atom:    3    charge:    3.9547    magn:    1.1114    constr:    0.0000
     atom:    4    charge:    3.9562    magn:    1.1102    constr:    0.0000
     atom:    5    charge:    3.9595    magn:    1.1086    constr:    0.0000
     atom:    6    charge:    3.9640    magn:    1.1034    constr:    0.0000
     atom:    7    charge:    3.9547    magn:    1.1118    constr:    0.0000
     atom:    8    charge:    3.9552    magn:    1.1123    constr:    0.0000
     atom:    9    charge:    3.9602    magn:    1.1077    constr:    0.0000
     atom:   10    charge:    3.9641    magn:    1.1035    constr:    0.0000
     atom:   11    charge:    3.9547    magn:    1.1118    constr:    0.0000
     atom:   12    charge:    3.9552    magn:    1.1123    constr:    0.0000
     atom:   13    charge:    3.9603    magn:    1.1077    constr:    0.0000
     atom:   14    charge:    3.9640    magn:    1.1035    constr:    0.0000
     atom:   15    charge:    3.9549    magn:    1.1119    constr:    0.0000
     atom:   16    charge:    3.9634    magn:    1.0948    constr:    0.0000
     atom:   17    charge:    3.9601    magn:    1.1076    constr:    0.0000
     atom:   18    charge:    3.9639    magn:    1.1033    constr:    0.0000
     atom:   19    charge:    3.9549    magn:    1.1119    constr:    0.0000
     atom:   20    charge:    3.9634    magn:    1.0948    constr:    0.0000
     atom:   21    charge:    3.9603    magn:    1.1077    constr:    0.0000
     atom:   22    charge:    3.9640    magn:    1.1035    constr:    0.0000
     atom:   23    charge:    3.9546    magn:    1.1123    constr:    0.0000
     atom:   24    charge:    3.9549    magn:    1.1123    constr:    0.0000
     atom:   25    charge:    3.9605    magn:    1.1077    constr:    0.0000
     atom:   26    charge:    3.9639    magn:    1.1026    constr:    0.0000
     atom:   27    charge:    3.9553    magn:    1.1104    constr:    0.0000
     atom:   28    charge:    3.9551    magn:    1.1127    constr:    0.0000
     atom:   29    charge:    3.9601    magn:    1.1078    constr:    0.0000
     atom:   30    charge:    3.9639    magn:    1.1035    constr:    0.0000
     atom:   31    charge:    3.9543    magn:    1.1125    constr:    0.0000
     atom:   32    charge:    3.9565    magn:    1.1103    constr:    0.0000
     atom:   33    charge:    3.9601    magn:    1.1078    constr:    0.0000
     atom:   34    charge:    3.9639    magn:    1.1035    constr:    0.0000
     atom:   35    charge:    3.9553    magn:    1.1104    constr:    0.0000
     atom:   36    charge:    3.9551    magn:    1.1127    constr:    0.0000
     atom:   37    charge:    0.5845    magn:    0.3984    constr:    0.0000

     total cpu time spent up to now is      227.9 secs

     total energy              =   -3631.79251443 Ry
     Harris-Foulkes estimate   =   -3634.43325486 Ry
     estimated scf accuracy    <      72.48138651 Ry

     total magnetization       =    40.72 Bohr mag/cell
     absolute magnetization    =    40.76 Bohr mag/cell

     iteration #  3     ecut=    44.10 Ry     beta=0.10
     Davidson diagonalization with overlap
     ethr =  2.63E-03,  avg # of iterations =  2.2

     negative rho (up, down):  3.074E-04 2.133E-04
 
     Adding external electric field

     Computed dipole along edir(3) : 
        Dipole               -0.3641 Ry au,         -0.9253 Debye
        Dipole field         -0.0006 Ry au
 
        Potential amp.        0.0506 Ry
        Total length         38.9923 bohr
 
 
     Adding external electric field

     Computed dipole along edir(3) : 
        Dipole               -0.3641 Ry au,         -0.9253 Debye
        Dipole field         -0.0006 Ry au
 
        Potential amp.        0.0506 Ry
        Total length         38.9923 bohr
 
 
     Magnetic moment per site:
     atom:    1    charge:    3.9611    magn:    1.0990    constr:    0.0000
     atom:    2    charge:    3.9584    magn:    1.0986    constr:    0.0000
     atom:    3    charge:    3.9546    magn:    1.1020    constr:    0.0000
     atom:    4    charge:    3.9641    magn:    1.0947    constr:    0.0000
     atom:    5    charge:    3.9611    magn:    1.0990    constr:    0.0000
     atom:    6    charge:    3.9584    magn:    1.0986    constr:    0.0000
     atom:    7    charge:    3.9545    magn:    1.1025    constr:    0.0000
     atom:    8    charge:    3.9639    magn:    1.0964    constr:    0.0000
     atom:    9    charge:    3.9615    magn:    1.0984    constr:    0.0000
     atom:   10    charge:    3.9584    magn:    1.0987    constr:    0.0000
     atom:   11    charge:    3.9545    magn:    1.1025    constr:    0.0000
     atom:   12    charge:    3.9639    magn:    1.0964    constr:    0.0000
     atom:   13    charge:    3.9615    magn:    1.0984    constr:    0.0000
     atom:   14    charge:    3.9583    magn:    1.0987    constr:    0.0000
     atom:   15    charge:    3.9541    magn:    1.1031    constr:    0.0000
     atom:   16    charge:    3.9674    magn:    1.0812    constr:    0.0000
     atom:   17    charge:    3.9615    magn:    1.0983    constr:    0.0000
     atom:   18    charge:    3.9581    magn:    1.0986    constr:    0.0000
     atom:   19    charge:    3.9541    magn:    1.1031    constr:    0.0000
     atom:   20    charge:    3.9674    magn:    1.0812    constr:    0.0000
     atom:   21    charge:    3.9615    magn:    1.0984    constr:    0.0000
     atom:   22    charge:    3.9583    magn:    1.0987    constr:    0.0000
     atom:   23    charge:    3.9546    magn:    1.1029    constr:    0.0000
     atom:   24    charge:    3.9635    magn:    1.0964    constr:    0.0000
     atom:   25    charge:    3.9617    magn:    1.0984    constr:    0.0000
     atom:   26    charge:    3.9582    magn:    1.0978    constr:    0.0000
     atom:   27    charge:    3.9545    magn:    1.1014    constr:    0.0000
     atom:   28    charge:    3.9639    magn:    1.0967    constr:    0.0000
     atom:   29    charge:    3.9615    magn:    1.0984    constr:    0.0000
     atom:   30    charge:    3.9583    magn:    1.0986    constr:    0.0000
     atom:   31    charge:    3.9532    magn:    1.1039    constr:    0.0000
     atom:   32    charge:    3.9644    magn:    1.0949    constr:    0.0000
     atom:   33    charge:    3.9615    magn:    1.0984    constr:    0.0000
     atom:   34    charge:    3.9583    magn:    1.0986    constr:    0.0000
     atom:   35    charge:    3.9544    magn:    1.1014    constr:    0.0000
     atom:   36    charge:    3.9639    magn:    1.0968    constr:    0.0000
     atom:   37    charge:    0.5870    magn:    0.3958    constr:    0.0000

     total cpu time spent up to now is      300.4 secs

     total energy              =   -3632.30614489 Ry
     Harris-Foulkes estimate   =   -3633.73179956 Ry
     estimated scf accuracy    <      88.78160862 Ry

     total magnetization       =    39.67 Bohr mag/cell
     absolute magnetization    =    39.73 Bohr mag/cell

     iteration #  4     ecut=    44.10 Ry     beta=0.10
     Davidson diagonalization with overlap
     ethr =  2.63E-03,  avg # of iterations =  1.0

     negative rho (up, down):  3.063E-04 2.157E-04
 
     Adding external electric field

     Computed dipole along edir(3) : 
        Dipole                0.0223 Ry au,          0.0566 Debye
        Dipole field          0.0000 Ry au
 
        Potential amp.       -0.0031 Ry
        Total length         38.9923 bohr
 
 
     Adding external electric field

     Computed dipole along edir(3) : 
        Dipole                0.0223 Ry au,          0.0566 Debye
        Dipole field          0.0000 Ry au
 
        Potential amp.       -0.0031 Ry
        Total length         38.9923 bohr
 
 
     Magnetic moment per site:
     atom:    1    charge:    3.9727    magn:    1.0489    constr:    0.0000
     atom:    2    charge:    3.9525    magn:    1.0603    constr:    0.0000
     atom:    3    charge:    3.9631    magn:    1.0525    constr:    0.0000
     atom:    4    charge:    3.9618    magn:    1.0564    constr:    0.0000
     atom:    5    charge:    3.9727    magn:    1.0489    constr:    0.0000
     atom:    6    charge:    3.9525    magn:    1.0603    constr:    0.0000
     atom:    7    charge:    3.9633    magn:    1.0530    constr:    0.0000
     atom:    8    charge:    3.9662    magn:    1.0554    constr:    0.0000
     atom:    9    charge:    3.9725    magn:    1.0486    constr:    0.0000
     atom:   10    charge:    3.9523    magn:    1.0608    constr:    0.0000
     atom:   11    charge:    3.9633    magn:    1.0530    constr:    0.0000
     atom:   12    charge:    3.9662    magn:    1.0554    constr:    0.0000
     atom:   13    charge:    3.9722    magn:    1.0489    constr:    0.0000
     atom:   14    charge:    3.9526    magn:    1.0603    constr:    0.0000
     atom:   15    charge:    3.9636    magn:    1.0530    constr:    0.0000
     atom:   16    charge:    3.9621    magn:    1.0319    constr:    0.0000
     atom:   17    charge:    3.9726    magn:    1.0483    constr:    0.0000
     atom:   18    charge:    3.9527    magn:    1.0600    constr:    0.0000
     atom:   19    charge:    3.9636    magn:    1.0530    constr:    0.0000
     atom:   20    charge:    3.9621    magn:    1.0319    constr:    0.0000
     atom:   21    charge:    3.9722    magn:    1.0489    constr:    0.0000
     atom:   22    charge:    3.9526    magn:    1.0604    constr:    0.0000
     atom:   23    charge:    3.9641    magn:    1.0528    constr:    0.0000
     atom:   24    charge:    3.9670    magn:    1.0540    constr:    0.0000
     atom:   25    charge:    3.9723    magn:    1.0490    constr:    0.0000
     atom:   26    charge:    3.9523    magn:    1.0592    constr:    0.0000
     atom:   27    charge:    3.9641    magn:    1.0506    constr:    0.0000
     atom:   28    charge:    3.9660    magn:    1.0560    constr:    0.0000
     atom:   29    charge:    3.9728    magn:    1.0483    constr:    0.0000
     atom:   30    charge:    3.9526    magn:    1.0604    constr:    0.0000
     atom:   31    charge:    3.9635    magn:    1.0536    constr:    0.0000
     atom:   32    charge:    3.9619    magn:    1.0570    constr:    0.0000
     atom:   33    charge:    3.9728    magn:    1.0483    constr:    0.0000
     atom:   34    charge:    3.9526    magn:    1.0604    constr:    0.0000
     atom:   35    charge:    3.9641    magn:    1.0506    constr:    0.0000
     atom:   36    charge:    3.9660    magn:    1.0560    constr:    0.0000
     atom:   37    charge:    0.5939    magn:    0.3819    constr:    0.0000

     total cpu time spent up to now is      367.9 secs

     total energy              =   -3633.02344852 Ry
     Harris-Foulkes estimate   =   -3633.15235842 Ry
     estimated scf accuracy    <      18.94759370 Ry

     total magnetization       =    37.60 Bohr mag/cell
     absolute magnetization    =    37.66 Bohr mag/cell

     iteration #  5     ecut=    44.10 Ry     beta=0.10
     Davidson diagonalization with overlap
     ethr =  2.63E-03,  avg # of iterations =  1.0

     negative rho (up, down):  3.024E-04 1.941E-04
 
     Adding external electric field

     Computed dipole along edir(3) : 
        Dipole               -0.1871 Ry au,         -0.4757 Debye
        Dipole field         -0.0003 Ry au
 
        Potential amp.        0.0260 Ry
        Total length         38.9923 bohr
 
 
     Adding external electric field

     Computed dipole along edir(3) : 
        Dipole               -0.1871 Ry au,         -0.4757 Debye
        Dipole field         -0.0003 Ry au
 
        Potential amp.        0.0260 Ry
        Total length         38.9923 bohr
 
 
     Magnetic moment per site:
     atom:    1    charge:    3.9807    magn:    0.9529    constr:    0.0000
     atom:    2    charge:    3.9612    magn:    0.9607    constr:    0.0000
     atom:    3    charge:    3.9614    magn:    0.9605    constr:    0.0000
     atom:    4    charge:    3.9738    magn:    0.9578    constr:    0.0000
     atom:    5    charge:    3.9807    magn:    0.9529    constr:    0.0000
     atom:    6    charge:    3.9612    magn:    0.9607    constr:    0.0000
     atom:    7    charge:    3.9621    magn:    0.9609    constr:    0.0000
     atom:    8    charge:    3.9797    magn:    0.9571    constr:    0.0000
     atom:    9    charge:    3.9810    magn:    0.9519    constr:    0.0000
     atom:   10    charge:    3.9611    magn:    0.9614    constr:    0.0000
     atom:   11    charge:    3.9621    magn:    0.9609    constr:    0.0000
     atom:   12    charge:    3.9797    magn:    0.9571    constr:    0.0000
     atom:   13    charge:    3.9812    magn:    0.9517    constr:    0.0000
     atom:   14    charge:    3.9612    magn:    0.9609    constr:    0.0000
     atom:   15    charge:    3.9632    magn:    0.9606    constr:    0.0000
     atom:   16    charge:    3.9596    magn:    0.9184    constr:    0.0000
     atom:   17    charge:    3.9808    magn:    0.9516    constr:    0.0000
     atom:   18    charge:    3.9615    magn:    0.9602    constr:    0.0000
     atom:   19    charge:    3.9632    magn:    0.9607    constr:    0.0000
     atom:   20    charge:    3.9596    magn:    0.9184    constr:    0.0000
     atom:   21    charge:    3.9812    magn:    0.9517    constr:    0.0000
     atom:   22    charge:    3.9612    magn:    0.9609    constr:    0.0000
     atom:   23    charge:    3.9616    magn:    0.9620    constr:    0.0000
     atom:   24    charge:    3.9787    magn:    0.9564    constr:    0.0000
     atom:   25    charge:    3.9811    magn:    0.9522    constr:    0.0000
     atom:   26    charge:    3.9607    magn:    0.9590    constr:    0.0000
     atom:   27    charge:    3.9622    magn:    0.9578    constr:    0.0000
     atom:   28    charge:    3.9797    magn:    0.9577    constr:    0.0000
     atom:   29    charge:    3.9811    magn:    0.9516    constr:    0.0000
     atom:   30    charge:    3.9612    magn:    0.9609    constr:    0.0000
     atom:   31    charge:    3.9641    magn:    0.9608    constr:    0.0000
     atom:   32    charge:    3.9735    magn:    0.9591    constr:    0.0000
     atom:   33    charge:    3.9811    magn:    0.9516    constr:    0.0000
     atom:   34    charge:    3.9612    magn:    0.9609    constr:    0.0000
     atom:   35    charge:    3.9622    magn:    0.9578    constr:    0.0000
     atom:   36    charge:    3.9797    magn:    0.9578    constr:    0.0000
     atom:   37    charge:    0.6082    magn:    0.3511    constr:    0.0000

     total cpu time spent up to now is      435.5 secs

     total energy              =   -3633.54416105 Ry
     Harris-Foulkes estimate   =   -3633.31201248 Ry
     estimated scf accuracy    <       8.03161851 Ry

     total magnetization       =    37.99 Bohr mag/cell
     absolute magnetization    =    38.12 Bohr mag/cell

     iteration #  6     ecut=    44.10 Ry     beta=0.10
     Davidson diagonalization with overlap
     ethr =  2.21E-03,  avg # of iterations =  1.2

     negative rho (up, down):  3.002E-04 1.928E-04
 
     Adding external electric field

     Computed dipole along edir(3) : 
        Dipole               -0.2342 Ry au,         -0.5953 Debye
        Dipole field         -0.0004 Ry au
 
        Potential amp.        0.0326 Ry
        Total length         38.9923 bohr
 
 
     Adding external electric field

     Computed dipole along edir(3) : 
        Dipole               -0.2342 Ry au,         -0.5953 Debye
        Dipole field         -0.0004 Ry au
 
        Potential amp.        0.0326 Ry
        Total length         38.9923 bohr
 
 
     Magnetic moment per site:
     atom:    1    charge:    3.9777    magn:    0.8899    constr:    0.0000
     atom:    2    charge:    3.9619    magn:    0.8968    constr:    0.0000
     atom:    3    charge:    3.9611    magn:    0.8970    constr:    0.0000
     atom:    4    charge:    3.9774    magn:    0.8894    constr:    0.0000
     atom:    5    charge:    3.9777    magn:    0.8899    constr:    0.0000
     atom:    6    charge:    3.9619    magn:    0.8968    constr:    0.0000
     atom:    7    charge:    3.9613    magn:    0.8983    constr:    0.0000
     atom:    8    charge:    3.9758    magn:    0.8958    constr:    0.0000
     atom:    9    charge:    3.9771    magn:    0.8895    constr:    0.0000
     atom:   10    charge:    3.9624    magn:    0.8973    constr:    0.0000
     atom:   11    charge:    3.9613    magn:    0.8983    constr:    0.0000
     atom:   12    charge:    3.9758    magn:    0.8958    constr:    0.0000
     atom:   13    charge:    3.9763    magn:    0.8901    constr:    0.0000
     atom:   14    charge:    3.9628    magn:    0.8964    constr:    0.0000
     atom:   15    charge:    3.9625    magn:    0.8976    constr:    0.0000
     atom:   16    charge:    3.9649    magn:    0.8329    constr:    0.0000
     atom:   17    charge:    3.9780    magn:    0.8881    constr:    0.0000
     atom:   18    charge:    3.9619    magn:    0.8967    constr:    0.0000
     atom:   19    charge:    3.9625    magn:    0.8976    constr:    0.0000
     atom:   20    charge:    3.9649    magn:    0.8329    constr:    0.0000
     atom:   21    charge:    3.9763    magn:    0.8901    constr:    0.0000
     atom:   22    charge:    3.9628    magn:    0.8964    constr:    0.0000
     atom:   23    charge:    3.9641    magn:    0.8965    constr:    0.0000
     atom:   24    charge:    3.9783    magn:    0.8916    constr:    0.0000
     atom:   25    charge:    3.9774    magn:    0.8898    constr:    0.0000
     atom:   26    charge:    3.9629    magn:    0.8934    constr:    0.0000
     atom:   27    charge:    3.9646    magn:    0.8913    constr:    0.0000
     atom:   28    charge:    3.9755    magn:    0.8965    constr:    0.0000
     atom:   29    charge:    3.9778    magn:    0.8885    constr:    0.0000
     atom:   30    charge:    3.9621    magn:    0.8968    constr:    0.0000
     atom:   31    charge:    3.9634    magn:    0.8973    constr:    0.0000
     atom:   32    charge:    3.9779    magn:    0.8908    constr:    0.0000
     atom:   33    charge:    3.9778    magn:    0.8885    constr:    0.0000
     atom:   34    charge:    3.9621    magn:    0.8968    constr:    0.0000
     atom:   35    charge:    3.9646    magn:    0.8913    constr:    0.0000
     atom:   36    charge:    3.9756    magn:    0.8965    constr:    0.0000
     atom:   37    charge:    0.6125    magn:    0.3262    constr:    0.0000

     total cpu time spent up to now is      504.1 secs

     total energy              =   -3633.85101876 Ry
     Harris-Foulkes estimate   =   -3633.64399908 Ry
     estimated scf accuracy    <       3.40536106 Ry

     total magnetization       =    37.16 Bohr mag/cell
     absolute magnetization    =    37.54 Bohr mag/cell

     iteration #  7     ecut=    44.10 Ry     beta=0.10
     Davidson diagonalization with overlap
     ethr =  9.36E-04,  avg # of iterations =  4.0

     negative rho (up, down):  3.031E-04 2.053E-04
 
     Adding external electric field

     Computed dipole along edir(3) : 
        Dipole               -0.1960 Ry au,         -0.4982 Debye
        Dipole field         -0.0003 Ry au
 
        Potential amp.        0.0273 Ry
        Total length         38.9923 bohr
 
 
     Adding external electric field

     Computed dipole along edir(3) : 
        Dipole               -0.1960 Ry au,         -0.4982 Debye
        Dipole field         -0.0003 Ry au
 
        Potential amp.        0.0273 Ry
        Total length         38.9923 bohr
 
 
     Magnetic moment per site:
     atom:    1    charge:    3.9701    magn:    0.8044    constr:    0.0000
     atom:    2    charge:    3.9651    magn:    0.8060    constr:    0.0000
     atom:    3    charge:    3.9648    magn:    0.8051    constr:    0.0000
     atom:    4    charge:    3.9728    magn:    0.8001    constr:    0.0000
     atom:    5    charge:    3.9701    magn:    0.8044    constr:    0.0000
     atom:    6    charge:    3.9651    magn:    0.8060    constr:    0.0000
     atom:    7    charge:    3.9654    magn:    0.8066    constr:    0.0000
     atom:    8    charge:    3.9785    magn:    0.8032    constr:    0.0000
     atom:    9    charge:    3.9723    magn:    0.8015    constr:    0.0000
     atom:   10    charge:    3.9649    magn:    0.8074    constr:    0.0000
     atom:   11    charge:    3.9654    magn:    0.8066    constr:    0.0000
     atom:   12    charge:    3.9785    magn:    0.8032    constr:    0.0000
     atom:   13    charge:    3.9728    magn:    0.8012    constr:    0.0000
     atom:   14    charge:    3.9631    magn:    0.8081    constr:    0.0000
     atom:   15    charge:    3.9643    magn:    0.8071    constr:    0.0000
     atom:   16    charge:    3.9586    magn:    0.7168    constr:    0.0000
     atom:   17    charge:    3.9710    magn:    0.8017    constr:    0.0000
     atom:   18    charge:    3.9645    magn:    0.8068    constr:    0.0000
     atom:   19    charge:    3.9643    magn:    0.8071    constr:    0.0000
     atom:   20    charge:    3.9586    magn:    0.7168    constr:    0.0000
     atom:   21    charge:    3.9728    magn:    0.8012    constr:    0.0000
     atom:   22    charge:    3.9631    magn:    0.8081    constr:    0.0000
     atom:   23    charge:    3.9633    magn:    0.8079    constr:    0.0000
     atom:   24    charge:    3.9736    magn:    0.8037    constr:    0.0000
     atom:   25    charge:    3.9705    magn:    0.8037    constr:    0.0000
     atom:   26    charge:    3.9620    magn:    0.8053    constr:    0.0000
     atom:   27    charge:    3.9621    magn:    0.8029    constr:    0.0000
     atom:   28    charge:    3.9785    magn:    0.8035    constr:    0.0000
     atom:   29    charge:    3.9711    magn:    0.8017    constr:    0.0000
     atom:   30    charge:    3.9638    magn:    0.8070    constr:    0.0000
     atom:   31    charge:    3.9627    magn:    0.8083    constr:    0.0000
     atom:   32    charge:    3.9715    magn:    0.8037    constr:    0.0000
     atom:   33    charge:    3.9711    magn:    0.8017    constr:    0.0000
     atom:   34    charge:    3.9638    magn:    0.8069    constr:    0.0000
     atom:   35    charge:    3.9621    magn:    0.8029    constr:    0.0000
     atom:   36    charge:    3.9785    magn:    0.8035    constr:    0.0000
     atom:   37    charge:    0.6144    magn:    0.2879    constr:    0.0000

     total cpu time spent up to now is      584.7 secs

     total energy              =   -3634.14401936 Ry
     Harris-Foulkes estimate   =   -3633.88525324 Ry
     estimated scf accuracy    <       1.08229344 Ry

     total magnetization       =    35.72 Bohr mag/cell
     absolute magnetization    =    36.33 Bohr mag/cell

     iteration #  8     ecut=    44.10 Ry     beta=0.10
     Davidson diagonalization with overlap
     ethr =  2.97E-04,  avg # of iterations =  7.5

     negative rho (up, down):  3.318E-04 2.839E-04
 
     Adding external electric field

     Computed dipole along edir(3) : 
        Dipole               -0.0389 Ry au,         -0.0988 Debye
        Dipole field         -0.0001 Ry au
 
        Potential amp.        0.0054 Ry
        Total length         38.9923 bohr
 
 
     Adding external electric field

     Computed dipole along edir(3) : 
        Dipole               -0.0389 Ry au,         -0.0988 Debye
        Dipole field         -0.0001 Ry au
 
        Potential amp.        0.0054 Ry
        Total length         38.9923 bohr
 
 
     Magnetic moment per site:
     atom:    1    charge:    3.9662    magn:    0.6682    constr:    0.0000
     atom:    2    charge:    3.9639    magn:    0.6713    constr:    0.0000
     atom:    3    charge:    3.9630    magn:    0.6696    constr:    0.0000
     atom:    4    charge:    3.9733    magn:    0.6574    constr:    0.0000
     atom:    5    charge:    3.9662    magn:    0.6682    constr:    0.0000
     atom:    6    charge:    3.9639    magn:    0.6713    constr:    0.0000
     atom:    7    charge:    3.9639    magn:    0.6716    constr:    0.0000
     atom:    8    charge:    3.9721    magn:    0.6697    constr:    0.0000
     atom:    9    charge:    3.9650    magn:    0.6675    constr:    0.0000
     atom:   10    charge:    3.9624    magn:    0.6744    constr:    0.0000
     atom:   11    charge:    3.9640    magn:    0.6716    constr:    0.0000
     atom:   12    charge:    3.9721    magn:    0.6697    constr:    0.0000
     atom:   13    charge:    3.9653    magn:    0.6675    constr:    0.0000
     atom:   14    charge:    3.9664    magn:    0.6706    constr:    0.0000
     atom:   15    charge:    3.9676    magn:    0.6671    constr:    0.0000
     atom:   16    charge:    3.9518    magn:    0.5344    constr:    0.0000
     atom:   17    charge:    3.9653    magn:    0.6665    constr:    0.0000
     atom:   18    charge:    3.9668    magn:    0.6701    constr:    0.0000
     atom:   19    charge:    3.9676    magn:    0.6672    constr:    0.0000
     atom:   20    charge:    3.9518    magn:    0.5344    constr:    0.0000
     atom:   21    charge:    3.9653    magn:    0.6675    constr:    0.0000
     atom:   22    charge:    3.9664    magn:    0.6706    constr:    0.0000
     atom:   23    charge:    3.9638    magn:    0.6704    constr:    0.0000
     atom:   24    charge:    3.9757    magn:    0.6619    constr:    0.0000
     atom:   25    charge:    3.9680    magn:    0.6662    constr:    0.0000
     atom:   26    charge:    3.9673    magn:    0.6656    constr:    0.0000
     atom:   27    charge:    3.9667    magn:    0.6607    constr:    0.0000
     atom:   28    charge:    3.9727    magn:    0.6690    constr:    0.0000
     atom:   29    charge:    3.9672    magn:    0.6648    constr:    0.0000
     atom:   30    charge:    3.9666    magn:    0.6690    constr:    0.0000
     atom:   31    charge:    3.9726    magn:    0.6629    constr:    0.0000
     atom:   32    charge:    3.9753    magn:    0.6596    constr:    0.0000
     atom:   33    charge:    3.9672    magn:    0.6648    constr:    0.0000
     atom:   34    charge:    3.9666    magn:    0.6690    constr:    0.0000
     atom:   35    charge:    3.9667    magn:    0.6607    constr:    0.0000
     atom:   36    charge:    3.9727    magn:    0.6690    constr:    0.0000
     atom:   37    charge:    0.6149    magn:    0.2263    constr:    0.0000

     total cpu time spent up to now is      684.3 secs

     total energy              =   -3634.44115461 Ry
     Harris-Foulkes estimate   =   -3634.18481549 Ry
     estimated scf accuracy    <       2.63228036 Ry

     total magnetization       =    33.90 Bohr mag/cell
     absolute magnetization    =    34.98 Bohr mag/cell

     iteration #  9     ecut=    44.10 Ry     beta=0.10
     Davidson diagonalization with overlap
     ethr =  2.97E-04,  avg # of iterations =  1.1

     negative rho (up, down):  3.658E-04 3.615E-04
 
     Adding external electric field

     Computed dipole along edir(3) : 
        Dipole                0.0431 Ry au,          0.1095 Debye
        Dipole field          0.0001 Ry au
 
        Potential amp.       -0.0060 Ry
        Total length         38.9923 bohr
 
 
     Adding external electric field

     Computed dipole along edir(3) : 
        Dipole                0.0431 Ry au,          0.1095 Debye
        Dipole field          0.0001 Ry au
 
        Potential amp.       -0.0060 Ry
        Total length         38.9923 bohr
 
 
     Magnetic moment per site:
     atom:    1    charge:    3.9661    magn:    0.5638    constr:    0.0000
     atom:    2    charge:    3.9683    magn:    0.5656    constr:    0.0000
     atom:    3    charge:    3.9674    magn:    0.5635    constr:    0.0000
     atom:    4    charge:    3.9765    magn:    0.5466    constr:    0.0000
     atom:    5    charge:    3.9661    magn:    0.5638    constr:    0.0000
     atom:    6    charge:    3.9683    magn:    0.5656    constr:    0.0000
     atom:    7    charge:    3.9677    magn:    0.5661    constr:    0.0000
     atom:    8    charge:    3.9694    magn:    0.5673    constr:    0.0000
     atom:    9    charge:    3.9662    magn:    0.5622    constr:    0.0000
     atom:   10    charge:    3.9691    magn:    0.5676    constr:    0.0000
     atom:   11    charge:    3.9677    magn:    0.5662    constr:    0.0000
     atom:   12    charge:    3.9694    magn:    0.5674    constr:    0.0000
     atom:   13    charge:    3.9657    magn:    0.5627    constr:    0.0000
     atom:   14    charge:    3.9669    magn:    0.5682    constr:    0.0000
     atom:   15    charge:    3.9690    magn:    0.5616    constr:    0.0000
     atom:   16    charge:    3.9510    magn:    0.3932    constr:    0.0000
     atom:   17    charge:    3.9673    magn:    0.5607    constr:    0.0000
     atom:   18    charge:    3.9654    magn:    0.5696    constr:    0.0000
     atom:   19    charge:    3.9690    magn:    0.5616    constr:    0.0000
     atom:   20    charge:    3.9510    magn:    0.3932    constr:    0.0000
     atom:   21    charge:    3.9657    magn:    0.5627    constr:    0.0000
     atom:   22    charge:    3.9669    magn:    0.5682    constr:    0.0000
     atom:   23    charge:    3.9695    magn:    0.5629    constr:    0.0000
     atom:   24    charge:    3.9690    magn:    0.5610    constr:    0.0000
     atom:   25    charge:    3.9629    magn:    0.5655    constr:    0.0000
     atom:   26    charge:    3.9672    magn:    0.5634    constr:    0.0000
     atom:   27    charge:    3.9690    magn:    0.5544    constr:    0.0000
     atom:   28    charge:    3.9683    magn:    0.5674    constr:    0.0000
     atom:   29    charge:    3.9646    magn:    0.5622    constr:    0.0000
     atom:   30    charge:    3.9662    magn:    0.5666    constr:    0.0000
     atom:   31    charge:    3.9697    magn:    0.5602    constr:    0.0000
     atom:   32    charge:    3.9752    magn:    0.5522    constr:    0.0000
     atom:   33    charge:    3.9646    magn:    0.5622    constr:    0.0000
     atom:   34    charge:    3.9662    magn:    0.5666    constr:    0.0000
     atom:   35    charge:    3.9690    magn:    0.5544    constr:    0.0000
     atom:   36    charge:    3.9683    magn:    0.5674    constr:    0.0000
     atom:   37    charge:    0.6132    magn:    0.1772    constr:    0.0000

     total cpu time spent up to now is      752.0 secs

     total energy              =   -3634.60453114 Ry
     Harris-Foulkes estimate   =   -3634.49978164 Ry
     estimated scf accuracy    <       0.67441359 Ry

     total magnetization       =    29.99 Bohr mag/cell
     absolute magnetization    =    32.17 Bohr mag/cell

     iteration # 10     ecut=    44.10 Ry     beta=0.10
     Davidson diagonalization with overlap
     ethr =  1.85E-04,  avg # of iterations =  2.8

     negative rho (up, down):  3.824E-04 3.961E-04
 
     Adding external electric field

     Computed dipole along edir(3) : 
        Dipole               -0.0010 Ry au,         -0.0024 Debye
        Dipole field         -0.0000 Ry au
 
        Potential amp.        0.0001 Ry
        Total length         38.9923 bohr
 
 
     Adding external electric field

     Computed dipole along edir(3) : 
        Dipole               -0.0010 Ry au,         -0.0024 Debye
        Dipole field         -0.0000 Ry au
 
        Potential amp.        0.0001 Ry
        Total length         38.9923 bohr
 
 
     Magnetic moment per site:
     atom:    1    charge:    3.9655    magn:    0.5006    constr:    0.0000
     atom:    2    charge:    3.9692    magn:    0.5020    constr:    0.0000
     atom:    3    charge:    3.9698    magn:    0.4992    constr:    0.0000
     atom:    4    charge:    3.9716    magn:    0.4821    constr:    0.0000
     atom:    5    charge:    3.9655    magn:    0.5006    constr:    0.0000
     atom:    6    charge:    3.9692    magn:    0.5020    constr:    0.0000
     atom:    7    charge:    3.9697    magn:    0.5018    constr:    0.0000
     atom:    8    charge:    3.9689    magn:    0.5042    constr:    0.0000
     atom:    9    charge:    3.9665    magn:    0.4982    constr:    0.0000
     atom:   10    charge:    3.9694    magn:    0.5044    constr:    0.0000
     atom:   11    charge:    3.9697    magn:    0.5018    constr:    0.0000
     atom:   12    charge:    3.9689    magn:    0.5042    constr:    0.0000
     atom:   13    charge:    3.9654    magn:    0.4990    constr:    0.0000
     atom:   14    charge:    3.9690    magn:    0.5039    constr:    0.0000
     atom:   15    charge:    3.9688    magn:    0.4976    constr:    0.0000
     atom:   16    charge:    3.9525    magn:    0.3042    constr:    0.0000
     atom:   17    charge:    3.9653    magn:    0.4984    constr:    0.0000
     atom:   18    charge:    3.9693    magn:    0.5050    constr:    0.0000
     atom:   19    charge:    3.9688    magn:    0.4976    constr:    0.0000
     atom:   20    charge:    3.9525    magn:    0.3041    constr:    0.0000
     atom:   21    charge:    3.9654    magn:    0.4990    constr:    0.0000
     atom:   22    charge:    3.9690    magn:    0.5039    constr:    0.0000
     atom:   23    charge:    3.9704    magn:    0.4987    constr:    0.0000
     atom:   24    charge:    3.9687    magn:    0.4966    constr:    0.0000
     atom:   25    charge:    3.9666    magn:    0.4989    constr:    0.0000
     atom:   26    charge:    3.9691    magn:    0.4996    constr:    0.0000
     atom:   27    charge:    3.9707    magn:    0.4890    constr:    0.0000
     atom:   28    charge:    3.9694    magn:    0.5027    constr:    0.0000
     atom:   29    charge:    3.9676    magn:    0.4962    constr:    0.0000
     atom:   30    charge:    3.9690    magn:    0.5016    constr:    0.0000
     atom:   31    charge:    3.9705    magn:    0.4954    constr:    0.0000
     atom:   32    charge:    3.9724    magn:    0.4872    constr:    0.0000
     atom:   33    charge:    3.9676    magn:    0.4962    constr:    0.0000
     atom:   34    charge:    3.9690    magn:    0.5016    constr:    0.0000
     atom:   35    charge:    3.9707    magn:    0.4890    constr:    0.0000
     atom:   36    charge:    3.9694    magn:    0.5027    constr:    0.0000
     atom:   37    charge:    0.6096    magn:    0.1443    constr:    0.0000

     total cpu time spent up to now is      827.4 secs

     total energy              =   -3634.67710635 Ry
     Harris-Foulkes estimate   =   -3634.64811693 Ry
     estimated scf accuracy    <       1.08970664 Ry

     total magnetization       =    26.44 Bohr mag/cell
     absolute magnetization    =    29.69 Bohr mag/cell

     iteration # 11     ecut=    44.10 Ry     beta=0.10
     Davidson diagonalization with overlap
     ethr =  1.85E-04,  avg # of iterations =  2.0

     negative rho (up, down):  3.932E-04 4.193E-04
 
     Adding external electric field

     Computed dipole along edir(3) : 
        Dipole               -0.0779 Ry au,         -0.1980 Debye
        Dipole field         -0.0001 Ry au
 
        Potential amp.        0.0108 Ry
        Total length         38.9923 bohr
 
 
     Adding external electric field

     Computed dipole along edir(3) : 
        Dipole               -0.0779 Ry au,         -0.1980 Debye
        Dipole field         -0.0001 Ry au
 
        Potential amp.        0.0108 Ry
        Total length         38.9923 bohr
 
 
     Magnetic moment per site:
     atom:    1    charge:    3.9680    magn:    0.4434    constr:    0.0000
     atom:    2    charge:    3.9714    magn:    0.4451    constr:    0.0000
     atom:    3    charge:    3.9703    magn:    0.4440    constr:    0.0000
     atom:    4    charge:    3.9722    magn:    0.4215    constr:    0.0000
     atom:    5    charge:    3.9680    magn:    0.4434    constr:    0.0000
     atom:    6    charge:    3.9714    magn:    0.4451    constr:    0.0000
     atom:    7    charge:    3.9705    magn:    0.4460    constr:    0.0000
     atom:    8    charge:    3.9693    magn:    0.4482    constr:    0.0000
     atom:    9    charge:    3.9670    magn:    0.4419    constr:    0.0000
     atom:   10    charge:    3.9701    magn:    0.4486    constr:    0.0000
     atom:   11    charge:    3.9705    magn:    0.4460    constr:    0.0000
     atom:   12    charge:    3.9693    magn:    0.4482    constr:    0.0000
     atom:   13    charge:    3.9679    magn:    0.4415    constr:    0.0000
     atom:   14    charge:    3.9705    magn:    0.4476    constr:    0.0000
     atom:   15    charge:    3.9716    magn:    0.4391    constr:    0.0000
     atom:   16    charge:    3.9529    magn:    0.2242    constr:    0.0000
     atom:   17    charge:    3.9678    magn:    0.4412    constr:    0.0000
     atom:   18    charge:    3.9721    magn:    0.4492    constr:    0.0000
     atom:   19    charge:    3.9716    magn:    0.4391    constr:    0.0000
     atom:   20    charge:    3.9529    magn:    0.2242    constr:    0.0000
     atom:   21    charge:    3.9679    magn:    0.4415    constr:    0.0000
     atom:   22    charge:    3.9705    magn:    0.4476    constr:    0.0000
     atom:   23    charge:    3.9700    magn:    0.4432    constr:    0.0000
     atom:   24    charge:    3.9683    magn:    0.4401    constr:    0.0000
     atom:   25    charge:    3.9674    magn:    0.4424    constr:    0.0000
     atom:   26    charge:    3.9714    magn:    0.4437    constr:    0.0000
     atom:   27    charge:    3.9700    magn:    0.4329    constr:    0.0000
     atom:   28    charge:    3.9687    magn:    0.4467    constr:    0.0000
     atom:   29    charge:    3.9664    magn:    0.4412    constr:    0.0000
     atom:   30    charge:    3.9712    magn:    0.4447    constr:    0.0000
     atom:   31    charge:    3.9738    magn:    0.4364    constr:    0.0000
     atom:   32    charge:    3.9722    magn:    0.4279    constr:    0.0000
     atom:   33    charge:    3.9664    magn:    0.4412    constr:    0.0000
     atom:   34    charge:    3.9712    magn:    0.4447    constr:    0.0000
     atom:   35    charge:    3.9700    magn:    0.4329    constr:    0.0000
     atom:   36    charge:    3.9687    magn:    0.4467    constr:    0.0000
     atom:   37    charge:    0.6042    magn:    0.1123    constr:    0.0000

     total cpu time spent up to now is      899.2 secs

     total energy              =   -3634.69811473 Ry
     Harris-Foulkes estimate   =   -3634.69319461 Ry
     estimated scf accuracy    <       0.45143099 Ry

     total magnetization       =    24.08 Bohr mag/cell
     absolute magnetization    =    28.01 Bohr mag/cell

     iteration # 12     ecut=    44.10 Ry     beta=0.10
     Davidson diagonalization with overlap
     ethr =  1.24E-04,  avg # of iterations =  3.4

     negative rho (up, down):  3.952E-04 4.269E-04
 
     Adding external electric field

     Computed dipole along edir(3) : 
        Dipole               -0.1403 Ry au,         -0.3565 Debye
        Dipole field         -0.0003 Ry au
 
        Potential amp.        0.0195 Ry
        Total length         38.9923 bohr
 
 
     Adding external electric field

     Computed dipole along edir(3) : 
        Dipole               -0.1403 Ry au,         -0.3565 Debye
        Dipole field         -0.0003 Ry au
 
        Potential amp.        0.0195 Ry
        Total length         38.9923 bohr
 
 
     Magnetic moment per site:
     atom:    1    charge:    3.9687    magn:    0.3988    constr:    0.0000
     atom:    2    charge:    3.9720    magn:    0.3998    constr:    0.0000
     atom:    3    charge:    3.9713    magn:    0.3994    constr:    0.0000
     atom:    4    charge:    3.9733    magn:    0.3707    constr:    0.0000
     atom:    5    charge:    3.9687    magn:    0.3988    constr:    0.0000
     atom:    6    charge:    3.9720    magn:    0.3998    constr:    0.0000
     atom:    7    charge:    3.9717    magn:    0.4002    constr:    0.0000
     atom:    8    charge:    3.9686    magn:    0.4034    constr:    0.0000
     atom:    9    charge:    3.9692    magn:    0.3958    constr:    0.0000
     atom:   10    charge:    3.9731    magn:    0.4021    constr:    0.0000
     atom:   11    charge:    3.9717    magn:    0.4002    constr:    0.0000
     atom:   12    charge:    3.9686    magn:    0.4034    constr:    0.0000
     atom:   13    charge:    3.9692    magn:    0.3958    constr:    0.0000
     atom:   14    charge:    3.9728    magn:    0.4016    constr:    0.0000
     atom:   15    charge:    3.9714    magn:    0.3927    constr:    0.0000
     atom:   16    charge:    3.9528    magn:    0.1572    constr:    0.0000
     atom:   17    charge:    3.9684    magn:    0.3966    constr:    0.0000
     atom:   18    charge:    3.9713    magn:    0.4062    constr:    0.0000
     atom:   19    charge:    3.9714    magn:    0.3927    constr:    0.0000
     atom:   20    charge:    3.9528    magn:    0.1572    constr:    0.0000
     atom:   21    charge:    3.9692    magn:    0.3958    constr:    0.0000
     atom:   22    charge:    3.9728    magn:    0.4016    constr:    0.0000
     atom:   23    charge:    3.9716    magn:    0.3973    constr:    0.0000
     atom:   24    charge:    3.9685    magn:    0.3935    constr:    0.0000
     atom:   25    charge:    3.9689    magn:    0.3966    constr:    0.0000
     atom:   26    charge:    3.9730    magn:    0.3991    constr:    0.0000
     atom:   27    charge:    3.9712    magn:    0.3863    constr:    0.0000
     atom:   28    charge:    3.9692    magn:    0.4001    constr:    0.0000
     atom:   29    charge:    3.9687    magn:    0.3954    constr:    0.0000
     atom:   30    charge:    3.9725    magn:    0.3990    constr:    0.0000
     atom:   31    charge:    3.9733    magn:    0.3899    constr:    0.0000
     atom:   32    charge:    3.9733    magn:    0.3776    constr:    0.0000
     atom:   33    charge:    3.9688    magn:    0.3954    constr:    0.0000
     atom:   34    charge:    3.9725    magn:    0.3990    constr:    0.0000
     atom:   35    charge:    3.9712    magn:    0.3863    constr:    0.0000
     atom:   36    charge:    3.9692    magn:    0.4001    constr:    0.0000
     atom:   37    charge:    0.5979    magn:    0.0828    constr:    0.0000

     total cpu time spent up to now is      976.5 secs

     total energy              =   -3634.70274289 Ry
     Harris-Foulkes estimate   =   -3634.70978757 Ry
     estimated scf accuracy    <       0.09129669 Ry

     total magnetization       =    22.07 Bohr mag/cell
     absolute magnetization    =    26.56 Bohr mag/cell

     iteration # 13     ecut=    44.10 Ry     beta=0.10
     Davidson diagonalization with overlap
     ethr =  2.51E-05,  avg # of iterations =  4.9

     negative rho (up, down):  3.741E-04 3.908E-04
 
     Adding external electric field

     Computed dipole along edir(3) : 
        Dipole               -0.1339 Ry au,         -0.3404 Debye
        Dipole field         -0.0002 Ry au
 
        Potential amp.        0.0186 Ry
        Total length         38.9923 bohr
 
 
     Adding external electric field

     Computed dipole along edir(3) : 
        Dipole               -0.1339 Ry au,         -0.3404 Debye
        Dipole field         -0.0002 Ry au
 
        Potential amp.        0.0186 Ry
        Total length         38.9923 bohr
 
 
     Magnetic moment per site:
     atom:    1    charge:    3.9701    magn:    0.3960    constr:    0.0000
     atom:    2    charge:    3.9726    magn:    0.3966    constr:    0.0000
     atom:    3    charge:    3.9715    magn:    0.3967    constr:    0.0000
     atom:    4    charge:    3.9729    magn:    0.3660    constr:    0.0000
     atom:    5    charge:    3.9701    magn:    0.3960    constr:    0.0000
     atom:    6    charge:    3.9726    magn:    0.3966    constr:    0.0000
     atom:    7    charge:    3.9713    magn:    0.3974    constr:    0.0000
     atom:    8    charge:    3.9694    magn:    0.3997    constr:    0.0000
     atom:    9    charge:    3.9696    magn:    0.3933    constr:    0.0000
     atom:   10    charge:    3.9719    magn:    0.4000    constr:    0.0000
     atom:   11    charge:    3.9713    magn:    0.3974    constr:    0.0000
     atom:   12    charge:    3.9694    magn:    0.3997    constr:    0.0000
     atom:   13    charge:    3.9697    magn:    0.3932    constr:    0.0000
     atom:   14    charge:    3.9717    magn:    0.3993    constr:    0.0000
     atom:   15    charge:    3.9711    magn:    0.3893    constr:    0.0000
     atom:   16    charge:    3.9547    magn:    0.1495    constr:    0.0000
     atom:   17    charge:    3.9703    magn:    0.3934    constr:    0.0000
     atom:   18    charge:    3.9724    magn:    0.4031    constr:    0.0000
     atom:   19    charge:    3.9711    magn:    0.3893    constr:    0.0000
     atom:   20    charge:    3.9547    magn:    0.1495    constr:    0.0000
     atom:   21    charge:    3.9698    magn:    0.3932    constr:    0.0000
     atom:   22    charge:    3.9717    magn:    0.3993    constr:    0.0000
     atom:   23    charge:    3.9714    magn:    0.3948    constr:    0.0000
     atom:   24    charge:    3.9687    magn:    0.3898    constr:    0.0000
     atom:   25    charge:    3.9701    magn:    0.3937    constr:    0.0000
     atom:   26    charge:    3.9723    magn:    0.3972    constr:    0.0000
     atom:   27    charge:    3.9713    magn:    0.3831    constr:    0.0000
     atom:   28    charge:    3.9692    magn:    0.3964    constr:    0.0000
     atom:   29    charge:    3.9702    magn:    0.3924    constr:    0.0000
     atom:   30    charge:    3.9718    magn:    0.3966    constr:    0.0000
     atom:   31    charge:    3.9725    magn:    0.3866    constr:    0.0000
     atom:   32    charge:    3.9729    magn:    0.3728    constr:    0.0000
     atom:   33    charge:    3.9702    magn:    0.3924    constr:    0.0000
     atom:   34    charge:    3.9718    magn:    0.3966    constr:    0.0000
     atom:   35    charge:    3.9713    magn:    0.3831    constr:    0.0000
     atom:   36    charge:    3.9692    magn:    0.3964    constr:    0.0000
     atom:   37    charge:    0.5960    magn:    0.0769    constr:    0.0000

     total cpu time spent up to now is     1062.0 secs

     total energy              =   -3634.70538979 Ry
     Harris-Foulkes estimate   =   -3634.70956194 Ry
     estimated scf accuracy    <       0.22385284 Ry

     total magnetization       =    20.72 Bohr mag/cell
     absolute magnetization    =    25.53 Bohr mag/cell

     iteration # 14     ecut=    44.10 Ry     beta=0.10
     Davidson diagonalization with overlap
     ethr =  2.51E-05,  avg # of iterations =  1.0

     negative rho (up, down):  3.564E-04 3.594E-04
 
     Adding external electric field

     Computed dipole along edir(3) : 
        Dipole               -0.1395 Ry au,         -0.3546 Debye
        Dipole field         -0.0002 Ry au
 
        Potential amp.        0.0194 Ry
        Total length         38.9923 bohr
 
 
     Adding external electric field

     Computed dipole along edir(3) : 
        Dipole               -0.1395 Ry au,         -0.3546 Debye
        Dipole field         -0.0002 Ry au
 
        Potential amp.        0.0194 Ry
        Total length         38.9923 bohr
 
 
     Magnetic moment per site:
     atom:    1    charge:    3.9708    magn:    0.3948    constr:    0.0000
     atom:    2    charge:    3.9720    magn:    0.3953    constr:    0.0000
     atom:    3    charge:    3.9713    magn:    0.3956    constr:    0.0000
     atom:    4    charge:    3.9729    magn:    0.3627    constr:    0.0000
     atom:    5    charge:    3.9708    magn:    0.3948    constr:    0.0000
     atom:    6    charge:    3.9720    magn:    0.3953    constr:    0.0000
     atom:    7    charge:    3.9715    magn:    0.3954    constr:    0.0000
     atom:    8    charge:    3.9699    magn:    0.3976    constr:    0.0000
     atom:    9    charge:    3.9706    magn:    0.3915    constr:    0.0000
     atom:   10    charge:    3.9722    magn:    0.3981    constr:    0.0000
     atom:   11    charge:    3.9715    magn:    0.3954    constr:    0.0000
     atom:   12    charge:    3.9699    magn:    0.3976    constr:    0.0000
     atom:   13    charge:    3.9709    magn:    0.3914    constr:    0.0000
     atom:   14    charge:    3.9719    magn:    0.3975    constr:    0.0000
     atom:   15    charge:    3.9710    magn:    0.3871    constr:    0.0000
     atom:   16    charge:    3.9558    magn:    0.1444    constr:    0.0000
     atom:   17    charge:    3.9701    magn:    0.3926    constr:    0.0000
     atom:   18    charge:    3.9719    magn:    0.4021    constr:    0.0000
     atom:   19    charge:    3.9710    magn:    0.3871    constr:    0.0000
     atom:   20    charge:    3.9558    magn:    0.1444    constr:    0.0000
     atom:   21    charge:    3.9709    magn:    0.3914    constr:    0.0000
     atom:   22    charge:    3.9719    magn:    0.3975    constr:    0.0000
     atom:   23    charge:    3.9717    magn:    0.3931    constr:    0.0000
     atom:   24    charge:    3.9695    magn:    0.3870    constr:    0.0000
     atom:   25    charge:    3.9709    magn:    0.3921    constr:    0.0000
     atom:   26    charge:    3.9723    magn:    0.3959    constr:    0.0000
     atom:   27    charge:    3.9714    magn:    0.3811    constr:    0.0000
     atom:   28    charge:    3.9699    magn:    0.3938    constr:    0.0000
     atom:   29    charge:    3.9700    magn:    0.3916    constr:    0.0000
     atom:   30    charge:    3.9720    magn:    0.3949    constr:    0.0000
     atom:   31    charge:    3.9725    magn:    0.3842    constr:    0.0000
     atom:   32    charge:    3.9733    magn:    0.3692    constr:    0.0000
     atom:   33    charge:    3.9700    magn:    0.3916    constr:    0.0000
     atom:   34    charge:    3.9720    magn:    0.3949    constr:    0.0000
     atom:   35    charge:    3.9714    magn:    0.3811    constr:    0.0000
     atom:   36    charge:    3.9699    magn:    0.3938    constr:    0.0000
     atom:   37    charge:    0.5951    magn:    0.0723    constr:    0.0000

     total cpu time spent up to now is     1129.6 secs

     total energy              =   -3634.70709997 Ry
     Harris-Foulkes estimate   =   -3634.70807736 Ry
     estimated scf accuracy    <       0.03516432 Ry

     total magnetization       =    20.69 Bohr mag/cell
     absolute magnetization    =    25.43 Bohr mag/cell

     iteration # 15     ecut=    44.10 Ry     beta=0.10
     Davidson diagonalization with overlap
     ethr =  9.66E-06,  avg # of iterations =  1.5

     negative rho (up, down):  3.365E-04 3.235E-04
 
     Adding external electric field

     Computed dipole along edir(3) : 
        Dipole               -0.1373 Ry au,         -0.3490 Debye
        Dipole field         -0.0002 Ry au
 
        Potential amp.        0.0191 Ry
        Total length         38.9923 bohr
 
 
     Adding external electric field

     Computed dipole along edir(3) : 
        Dipole               -0.1373 Ry au,         -0.3490 Debye
        Dipole field         -0.0002 Ry au
 
        Potential amp.        0.0191 Ry
        Total length         38.9923 bohr
 
 
     Magnetic moment per site:
     atom:    1    charge:    3.9706    magn:    0.4005    constr:    0.0000
     atom:    2    charge:    3.9705    magn:    0.4005    constr:    0.0000
     atom:    3    charge:    3.9711    magn:    0.4004    constr:    0.0000
     atom:    4    charge:    3.9737    magn:    0.3641    constr:    0.0000
     atom:    5    charge:    3.9706    magn:    0.4005    constr:    0.0000
     atom:    6    charge:    3.9705    magn:    0.4005    constr:    0.0000
     atom:    7    charge:    3.9708    magn:    0.3996    constr:    0.0000
     atom:    8    charge:    3.9708    magn:    0.4009    constr:    0.0000
     atom:    9    charge:    3.9704    magn:    0.3966    constr:    0.0000
     atom:   10    charge:    3.9706    magn:    0.4034    constr:    0.0000
     atom:   11    charge:    3.9708    magn:    0.3996    constr:    0.0000
     atom:   12    charge:    3.9708    magn:    0.4009    constr:    0.0000
     atom:   13    charge:    3.9706    magn:    0.3965    constr:    0.0000
     atom:   14    charge:    3.9708    magn:    0.4025    constr:    0.0000
     atom:   15    charge:    3.9706    magn:    0.3906    constr:    0.0000
     atom:   16    charge:    3.9568    magn:    0.1451    constr:    0.0000
     atom:   17    charge:    3.9710    magn:    0.3974    constr:    0.0000
     atom:   18    charge:    3.9707    magn:    0.4075    constr:    0.0000
     atom:   19    charge:    3.9706    magn:    0.3906    constr:    0.0000
     atom:   20    charge:    3.9568    magn:    0.1451    constr:    0.0000
     atom:   21    charge:    3.9706    magn:    0.3965    constr:    0.0000
     atom:   22    charge:    3.9708    magn:    0.4024    constr:    0.0000
     atom:   23    charge:    3.9710    magn:    0.3981    constr:    0.0000
     atom:   24    charge:    3.9707    magn:    0.3892    constr:    0.0000
     atom:   25    charge:    3.9705    magn:    0.3975    constr:    0.0000
     atom:   26    charge:    3.9710    magn:    0.4017    constr:    0.0000
     atom:   27    charge:    3.9707    magn:    0.3851    constr:    0.0000
     atom:   28    charge:    3.9712    magn:    0.3963    constr:    0.0000
     atom:   29    charge:    3.9706    magn:    0.3965    constr:    0.0000
     atom:   30    charge:    3.9706    magn:    0.4001    constr:    0.0000
     atom:   31    charge:    3.9715    magn:    0.3878    constr:    0.0000
     atom:   32    charge:    3.9733    magn:    0.3705    constr:    0.0000
     atom:   33    charge:    3.9706    magn:    0.3966    constr:    0.0000
     atom:   34    charge:    3.9706    magn:    0.4001    constr:    0.0000
     atom:   35    charge:    3.9707    magn:    0.3851    constr:    0.0000
     atom:   36    charge:    3.9712    magn:    0.3962    constr:    0.0000
     atom:   37    charge:    0.5937    magn:    0.0672    constr:    0.0000

     total cpu time spent up to now is     1199.0 secs

     total energy              =   -3634.70874868 Ry
     Harris-Foulkes estimate   =   -3634.70829045 Ry
     estimated scf accuracy    <       0.04036843 Ry

     total magnetization       =    20.70 Bohr mag/cell
     absolute magnetization    =    25.38 Bohr mag/cell

     iteration # 16     ecut=    44.10 Ry     beta=0.10
     Davidson diagonalization with overlap
     ethr =  9.66E-06,  avg # of iterations =  3.9

     negative rho (up, down):  3.248E-04 3.014E-04
 
     Adding external electric field

     Computed dipole along edir(3) : 
        Dipole               -0.1389 Ry au,         -0.3530 Debye
        Dipole field         -0.0002 Ry au
 
        Potential amp.        0.0193 Ry
        Total length         38.9923 bohr
 
 
     Adding external electric field

     Computed dipole along edir(3) : 
        Dipole               -0.1389 Ry au,         -0.3530 Debye
        Dipole field         -0.0002 Ry au
 
        Potential amp.        0.0193 Ry
        Total length         38.9923 bohr
 
 
     Magnetic moment per site:
     atom:    1    charge:    3.9711    magn:    0.3993    constr:    0.0000
     atom:    2    charge:    3.9700    magn:    0.3993    constr:    0.0000
     atom:    3    charge:    3.9701    magn:    0.3996    constr:    0.0000
     atom:    4    charge:    3.9734    magn:    0.3607    constr:    0.0000
     atom:    5    charge:    3.9711    magn:    0.3993    constr:    0.0000
     atom:    6    charge:    3.9700    magn:    0.3993    constr:    0.0000
     atom:    7    charge:    3.9704    magn:    0.3979    constr:    0.0000
     atom:    8    charge:    3.9720    magn:    0.3981    constr:    0.0000
     atom:    9    charge:    3.9709    magn:    0.3950    constr:    0.0000
     atom:   10    charge:    3.9702    magn:    0.4021    constr:    0.0000
     atom:   11    charge:    3.9704    magn:    0.3979    constr:    0.0000
     atom:   12    charge:    3.9720    magn:    0.3981    constr:    0.0000
     atom:   13    charge:    3.9711    magn:    0.3949    constr:    0.0000
     atom:   14    charge:    3.9699    magn:    0.4014    constr:    0.0000
     atom:   15    charge:    3.9698    magn:    0.3887    constr:    0.0000
     atom:   16    charge:    3.9576    magn:    0.1397    constr:    0.0000
     atom:   17    charge:    3.9706    magn:    0.3966    constr:    0.0000
     atom:   18    charge:    3.9699    magn:    0.4067    constr:    0.0000
     atom:   19    charge:    3.9698    magn:    0.3887    constr:    0.0000
     atom:   20    charge:    3.9576    magn:    0.1397    constr:    0.0000
     atom:   21    charge:    3.9711    magn:    0.3949    constr:    0.0000
     atom:   22    charge:    3.9699    magn:    0.4014    constr:    0.0000
     atom:   23    charge:    3.9706    magn:    0.3968    constr:    0.0000
     atom:   24    charge:    3.9717    magn:    0.3859    constr:    0.0000
     atom:   25    charge:    3.9713    magn:    0.3959    constr:    0.0000
     atom:   26    charge:    3.9704    magn:    0.4010    constr:    0.0000
     atom:   27    charge:    3.9703    magn:    0.3832    constr:    0.0000
     atom:   28    charge:    3.9719    magn:    0.3934    constr:    0.0000
     atom:   29    charge:    3.9706    magn:    0.3955    constr:    0.0000
     atom:   30    charge:    3.9701    magn:    0.3990    constr:    0.0000
     atom:   31    charge:    3.9712    magn:    0.3854    constr:    0.0000
     atom:   32    charge:    3.9740    magn:    0.3664    constr:    0.0000
     atom:   33    charge:    3.9706    magn:    0.3955    constr:    0.0000
     atom:   34    charge:    3.9701    magn:    0.3990    constr:    0.0000
     atom:   35    charge:    3.9703    magn:    0.3832    constr:    0.0000
     atom:   36    charge:    3.9719    magn:    0.3934    constr:    0.0000
     atom:   37    charge:    0.5933    magn:    0.0621    constr:    0.0000

     total cpu time spent up to now is     1278.9 secs

     total energy              =   -3634.71005932 Ry
     Harris-Foulkes estimate   =   -3634.70969721 Ry
     estimated scf accuracy    <       0.01149244 Ry

     total magnetization       =    20.84 Bohr mag/cell
     absolute magnetization    =    25.34 Bohr mag/cell

     iteration # 17     ecut=    44.10 Ry     beta=0.10
     Davidson diagonalization with overlap
     ethr =  3.16E-06,  avg # of iterations =  5.2

     negative rho (up, down):  3.174E-04 2.880E-04
 
     Adding external electric field

     Computed dipole along edir(3) : 
        Dipole               -0.1528 Ry au,         -0.3883 Debye
        Dipole field         -0.0003 Ry au
 
        Potential amp.        0.0212 Ry
        Total length         38.9923 bohr
 
 
     Adding external electric field

     Computed dipole along edir(3) : 
        Dipole               -0.1528 Ry au,         -0.3883 Debye
        Dipole field         -0.0003 Ry au
 
        Potential amp.        0.0212 Ry
        Total length         38.9923 bohr
 
 
     Magnetic moment per site:
     atom:    1    charge:    3.9713    magn:    0.3939    constr:    0.0000
     atom:    2    charge:    3.9706    magn:    0.3933    constr:    0.0000
     atom:    3    charge:    3.9702    magn:    0.3940    constr:    0.0000
     atom:    4    charge:    3.9741    magn:    0.3532    constr:    0.0000
     atom:    5    charge:    3.9713    magn:    0.3939    constr:    0.0000
     atom:    6    charge:    3.9706    magn:    0.3933    constr:    0.0000
     atom:    7    charge:    3.9700    magn:    0.3922    constr:    0.0000
     atom:    8    charge:    3.9719    magn:    0.3921    constr:    0.0000
     atom:    9    charge:    3.9711    magn:    0.3894    constr:    0.0000
     atom:   10    charge:    3.9705    magn:    0.3963    constr:    0.0000
     atom:   11    charge:    3.9700    magn:    0.3922    constr:    0.0000
     atom:   12    charge:    3.9719    magn:    0.3921    constr:    0.0000
     atom:   13    charge:    3.9712    magn:    0.3893    constr:    0.0000
     atom:   14    charge:    3.9703    magn:    0.3955    constr:    0.0000
     atom:   15    charge:    3.9697    magn:    0.3826    constr:    0.0000
     atom:   16    charge:    3.9579    magn:    0.1299    constr:    0.0000
     atom:   17    charge:    3.9713    magn:    0.3907    constr:    0.0000
     atom:   18    charge:    3.9705    magn:    0.4010    constr:    0.0000
     atom:   19    charge:    3.9697    magn:    0.3826    constr:    0.0000
     atom:   20    charge:    3.9579    magn:    0.1299    constr:    0.0000
     atom:   21    charge:    3.9712    magn:    0.3893    constr:    0.0000
     atom:   22    charge:    3.9703    magn:    0.3955    constr:    0.0000
     atom:   23    charge:    3.9703    magn:    0.3913    constr:    0.0000
     atom:   24    charge:    3.9717    magn:    0.3793    constr:    0.0000
     atom:   25    charge:    3.9714    magn:    0.3903    constr:    0.0000
     atom:   26    charge:    3.9707    magn:    0.3954    constr:    0.0000
     atom:   27    charge:    3.9702    magn:    0.3771    constr:    0.0000
     atom:   28    charge:    3.9721    magn:    0.3869    constr:    0.0000
     atom:   29    charge:    3.9712    magn:    0.3897    constr:    0.0000
     atom:   30    charge:    3.9703    magn:    0.3932    constr:    0.0000
     atom:   31    charge:    3.9708    magn:    0.3794    constr:    0.0000
     atom:   32    charge:    3.9740    magn:    0.3592    constr:    0.0000
     atom:   33    charge:    3.9712    magn:    0.3897    constr:    0.0000
     atom:   34    charge:    3.9703    magn:    0.3932    constr:    0.0000
     atom:   35    charge:    3.9702    magn:    0.3771    constr:    0.0000
     atom:   36    charge:    3.9721    magn:    0.3869    constr:    0.0000
     atom:   37    charge:    0.5925    magn:    0.0568    constr:    0.0000

     total cpu time spent up to now is     1365.7 secs

     total energy              =   -3634.71031446 Ry
     Harris-Foulkes estimate   =   -3634.71057387 Ry
     estimated scf accuracy    <       0.01123670 Ry

     total magnetization       =    20.82 Bohr mag/cell
     absolute magnetization    =    25.23 Bohr mag/cell

     iteration # 18     ecut=    44.10 Ry     beta=0.10
     Davidson diagonalization with overlap
     ethr =  3.09E-06,  avg # of iterations =  1.1

     negative rho (up, down):  3.110E-04 2.761E-04
 
     Adding external electric field

     Computed dipole along edir(3) : 
        Dipole               -0.1418 Ry au,         -0.3604 Debye
        Dipole field         -0.0003 Ry au
 
        Potential amp.        0.0197 Ry
        Total length         38.9923 bohr
 
 
     Adding external electric field

     Computed dipole along edir(3) : 
        Dipole               -0.1418 Ry au,         -0.3604 Debye
        Dipole field         -0.0003 Ry au
 
        Potential amp.        0.0197 Ry
        Total length         38.9923 bohr
 
 
     Magnetic moment per site:
     atom:    1    charge:    3.9714    magn:    0.3877    constr:    0.0000
     atom:    2    charge:    3.9694    magn:    0.3870    constr:    0.0000
     atom:    3    charge:    3.9696    magn:    0.3875    constr:    0.0000
     atom:    4    charge:    3.9739    magn:    0.3423    constr:    0.0000
     atom:    5    charge:    3.9714    magn:    0.3877    constr:    0.0000
     atom:    6    charge:    3.9694    magn:    0.3870    constr:    0.0000
     atom:    7    charge:    3.9696    magn:    0.3846    constr:    0.0000
     atom:    8    charge:    3.9729    magn:    0.3830    constr:    0.0000
     atom:    9    charge:    3.9714    magn:    0.3823    constr:    0.0000
     atom:   10    charge:    3.9695    magn:    0.3899    constr:    0.0000
     atom:   11    charge:    3.9696    magn:    0.3846    constr:    0.0000
     atom:   12    charge:    3.9729    magn:    0.3830    constr:    0.0000
     atom:   13    charge:    3.9716    magn:    0.3822    constr:    0.0000
     atom:   14    charge:    3.9695    magn:    0.3889    constr:    0.0000
     atom:   15    charge:    3.9695    magn:    0.3742    constr:    0.0000
     atom:   16    charge:    3.9579    magn:    0.1146    constr:    0.0000
     atom:   17    charge:    3.9715    magn:    0.3841    constr:    0.0000
     atom:   18    charge:    3.9696    magn:    0.3949    constr:    0.0000
[...]
    10.5761  10.7379  10.7732  10.8559  10.8869  11.0798  11.1414  11.2391
    11.2556  11.3648  11.5364  11.6343  11.6690  11.7648  11.8503  11.9005
    11.9412  12.0937  12.1790  12.2616  12.2997  12.5143  12.6175  12.7201
    12.8263  13.0499  13.0916  13.1391  13.1454  13.1766  13.2744  13.4233
    13.4779  13.5280

 ------ SPIN DOWN ----------


          k = 0.0000 0.0000 0.0000 ( 34645 PWs)   bands (ev):

    -9.0013  -6.2240  -4.8211  -3.2450  -3.2433  -3.1866  -3.1449  -3.1264
    -3.1244  -3.0254  -2.6461  -2.6451  -2.3292  -2.3041  -2.3029  -2.2559
    -2.1661  -1.8805  -1.8790  -1.6382  -1.4750  -1.4721  -1.4628  -1.2407
    -1.1864  -1.1824  -0.9358  -0.9328  -0.9202  -0.9158  -0.9069  -0.8957
    -0.8345  -0.8340  -0.8091  -0.7767  -0.7762  -0.7643  -0.7292  -0.7278
    -0.7178  -0.7173  -0.6929  -0.6700  -0.6684  -0.6285  -0.6278  -0.4797
    -0.4500  -0.4497  -0.3796  -0.3762  -0.3716  -0.3695  -0.3387  -0.2535
    -0.2533  -0.1007  -0.0239  -0.0169   0.0123   0.0155   0.0235   0.0512
     0.0606   0.1895   0.2004   0.2077   0.2291   0.2336   0.2809   0.3024
     0.3127   0.3733   0.4065   0.4384   0.4436   0.4449   0.5513   0.5558
     0.5737   0.5753   0.5773   0.5782   0.6116   0.6230   0.6288   0.6592
     0.6623   0.6630   0.6653   0.6721   0.7230   0.7244   0.7301   0.7350
     0.7539   0.7540   0.7670   0.7814   0.7825   0.7978   0.8100   0.8132
     0.8213   0.8268   0.8382   0.8452   0.8924   0.8937   0.9424   0.9592
     0.9619   1.0292   1.0305   1.0305   1.1224   1.1230   1.1286   1.1558
     1.1673   1.1709   1.2085   1.2807   1.2818   1.3025   1.3811   1.3833
     1.3983   1.4032   1.5232   1.5328   1.5508   1.5806   1.6009   1.6158
     1.6226   1.6664   1.6671   1.6812   1.7122   1.7135   1.7401   1.7417
     1.7428   1.7782   1.8009   1.8044   1.8690   1.8761   1.8797   1.9120
     1.9126   1.9389   1.9485   1.9510   1.9654   1.9694   1.9701   1.9735
     1.9900   1.9918   1.9937   2.0023   2.0046   2.0055   2.0576   2.0585
     2.0724   2.0730   2.0839   2.0883   2.0883   2.1059   2.1097   2.1106
     2.1315   2.1559   2.1568   2.1593   2.1597   2.1620   2.1830   2.2030
     2.2044   2.2257   2.2372   2.2470   2.2480   2.2929   2.3036   2.3515
     2.3667   2.3704   2.3742   2.3792   2.3959   2.8203   2.8238   2.8242
     3.1338   3.1732   3.1750   3.6862   4.1881   4.1932   5.1556   5.3650
     5.3661   5.3833   6.0016   6.0032   6.6426   6.8092   7.0731   7.0779
     7.1261   7.3125   7.3355   7.3695   7.3757   7.7124   7.7170   7.7289
     7.9554   8.0073   8.0095   8.0358   8.2016   8.2175   8.2415   9.0611
     9.1029   9.1309   9.7352   9.7387   9.7575   9.8076   9.8088   9.8267
     9.8776  10.0669  10.1641  10.1879  10.2207  10.2217  10.2294  10.2371
    10.2389  10.3281  10.8399  10.9684  11.0025  11.0105  11.0383  11.0459
    11.0724  11.1865  11.3503  11.4586  11.4620  11.6349  11.6350  11.6670
    11.6673  11.6896  11.7950  11.8103  11.8202  11.8299  11.8474  12.0049
    12.2650  12.4751  12.4850  12.7068  12.7109  12.8016  12.8640  13.0129
    13.0355  13.3833

          k = 0.0000 0.0510 0.0000 ( 34862 PWs)   bands (ev):

    -8.9890  -5.8339  -4.7283  -4.4658  -3.7166  -3.6787  -3.5028  -2.8526
    -2.8482  -2.5861  -2.3436  -2.3064  -2.1912  -2.0526  -1.9900  -1.8869
    -1.8661  -1.8052  -1.6958  -1.6811  -1.5915  -1.3996  -1.3862  -1.3073
    -1.2921  -1.2571  -1.2360  -1.2123  -1.1807  -1.1255  -1.1065  -1.0836
    -0.9563  -0.9229  -0.8944  -0.8828  -0.8391  -0.7709  -0.7474  -0.7457
    -0.7267  -0.7062  -0.6472  -0.6063  -0.5791  -0.5448  -0.4696  -0.4429
    -0.4209  -0.3711  -0.3394  -0.3342  -0.2690  -0.2638  -0.2433  -0.2382
    -0.1458  -0.1230  -0.0866  -0.0743  -0.0404  -0.0100   0.0120   0.0879
     0.0953   0.1078   0.1558   0.1630   0.2075   0.2234   0.2296   0.2484
     0.2849   0.3075   0.3386   0.3468   0.3840   0.3984   0.4277   0.4321
     0.4465   0.4814   0.5099   0.5183   0.5294   0.5559   0.5749   0.5940
     0.6053   0.6184   0.6205   0.6403   0.6547   0.6725   0.6959   0.7030
     0.7310   0.7353   0.7488   0.7618   0.7805   0.8100   0.8175   0.8364
     0.8565   0.8612   0.8861   0.8891   0.8992   0.9074   0.9254   0.9332
     0.9790   0.9843   1.0095   1.0465   1.0756   1.0838   1.1234   1.1478
     1.1580   1.2180   1.2430   1.2467   1.2912   1.2927   1.3165   1.3244
     1.3516   1.3560   1.3703   1.3787   1.4065   1.4181   1.5133   1.5230
     1.5715   1.5787   1.5971   1.6157   1.6231   1.6621   1.6916   1.7095
     1.7250   1.7307   1.7487   1.7658   1.7830   1.8065   1.8161   1.8468
     1.8565   1.8805   1.8925   1.9232   1.9327   1.9707   1.9731   1.9824
     1.9963   2.0150   2.0206   2.0353   2.0661   2.0887   2.1266   2.1297
     2.1478   2.1575   2.1748   2.1778   2.1912   2.2244   2.2333   2.2691
     2.2704   2.2792   2.2964   2.3038   2.3055   2.3192   2.3385   2.3643
     2.4028   2.4120   2.4332   2.4419   2.4491   2.4573   2.5134   2.5424
     2.7933   2.8133   2.8875   2.9073   3.0594   3.1303   3.1967   3.3169
     3.5336   3.7927   3.9132   4.1172   4.2832   4.4033   4.4165   4.6553
     4.7888   5.0260   5.1482   5.3932   5.6106   5.6767   5.9375   6.1467
     6.3886   6.5880   6.8213   7.0235   7.0652   7.2459   7.3736   7.5154
     7.5630   8.2077   8.3340   8.4612   8.5470   8.9508   8.9957   9.0259
     9.1549   9.1822   9.2472   9.2640   9.3698   9.3784   9.4741   9.5525
     9.5758   9.6303   9.7848  10.0539  10.0912  10.2524  10.4589  10.4950
    10.6539  10.7954  10.8235  10.9475  10.9534  11.1333  11.2219  11.2868
    11.3369  11.4353  11.5868  11.6742  11.7098  11.7888  11.8995  11.9433
    11.9997  12.1712  12.2699  12.3173  12.3806  12.6002  12.6571  12.7567
    12.8374  13.0791  13.1484  13.1628  13.2018  13.2368  13.3069  13.4751
    13.5258  13.5660

          k = 0.0442 0.0255 0.0000 ( 34862 PWs)   bands (ev):

    -8.9890  -5.8338  -4.7276  -4.4656  -3.7175  -3.6795  -3.5022  -2.8533
    -2.8476  -2.5863  -2.3431  -2.3080  -2.1907  -2.0521  -1.9848  -1.8848
    -1.8679  -1.8061  -1.6958  -1.6793  -1.5920  -1.4042  -1.3903  -1.3061
    -1.2928  -1.2548  -1.2336  -1.2082  -1.1784  -1.1223  -1.1067  -1.0784
    -0.9590  -0.9281  -0.8995  -0.8874  -0.8413  -0.7735  -0.7519  -0.7492
    -0.7290  -0.7090  -0.6476  -0.6076  -0.5763  -0.5429  -0.4690  -0.4416
    -0.4205  -0.3737  -0.3369  -0.3365  -0.2693  -0.2668  -0.2418  -0.2396
    -0.1459  -0.1251  -0.0901  -0.0827  -0.0415  -0.0139   0.0130   0.0931
     0.0945   0.1106   0.1593   0.1598   0.2111   0.2207   0.2287   0.2505
     0.2842   0.3045   0.3413   0.3435   0.3826   0.3917   0.4295   0.4307
     0.4455   0.4820   0.5146   0.5221   0.5515   0.5650   0.5800   0.5958
     0.6027   0.6164   0.6193   0.6347   0.6496   0.6721   0.6984   0.7068
     0.7314   0.7389   0.7496   0.7662   0.7798   0.8139   0.8151   0.8372
     0.8557   0.8603   0.8876   0.8907   0.9007   0.9154   0.9266   0.9288
     0.9828   0.9835   1.0056   1.0467   1.0694   1.0834   1.1202   1.1481
     1.1557   1.2215   1.2468   1.2486   1.2940   1.2944   1.3143   1.3262
     1.3578   1.3588   1.3704   1.3809   1.4064   1.4197   1.5117   1.5248
     1.5707   1.5751   1.5982   1.6162   1.6246   1.6622   1.6923   1.7126
     1.7240   1.7321   1.7510   1.7616   1.7866   1.8072   1.8151   1.8457
     1.8556   1.8798   1.8904   1.9227   1.9320   1.9679   1.9715   1.9811
     1.9974   2.0163   2.0209   2.0339   2.0654   2.0877   2.1291   2.1318
     2.1491   2.1573   2.1755   2.1775   2.1930   2.2269   2.2348   2.2710
     2.2752   2.2854   2.2954   2.3000   2.3070   2.3159   2.3328   2.3607
     2.4006   2.4096   2.4282   2.4423   2.4452   2.4538   2.5217   2.5421
     2.7894   2.8146   2.8858   2.9046   3.0609   3.1323   3.1950   3.3054
     3.5338   3.7915   3.9083   4.1114   4.2836   4.4056   4.4137   4.6526
     4.7885   5.0237   5.1492   5.3917   5.6087   5.6630   5.9402   6.1429
     6.3944   6.5917   6.8276   7.0204   7.0635   7.2389   7.3734   7.5369
     7.5788   8.2082   8.3348   8.4618   8.5965   8.9462   8.9817   9.0036
     9.1570   9.1576   9.2448   9.2646   9.3747   9.3934   9.4733   9.5637
     9.5717   9.6339   9.7792  10.0532  10.0542  10.2498  10.4535  10.4968
    10.6691  10.7941  10.8291  10.9469  10.9695  11.1344  11.2232  11.2852
    11.3394  11.4371  11.5787  11.6675  11.7034  11.7882  11.8922  11.9361
    12.0103  12.1703  12.2711  12.3122  12.3665  12.6106  12.6599  12.7578
    12.8345  13.0670  13.1481  13.1631  13.2133  13.2357  13.3026  13.4903
    13.5425  13.5651

          k = 0.0442 0.0765 0.0000 ( 34881 PWs)   bands (ev):

    -8.9829  -5.1116  -5.1074  -5.0013  -3.9250  -3.8884  -3.5935  -2.6050
    -2.5057  -2.2815  -2.2730  -2.2684  -2.0500  -2.0343  -1.9275  -1.7840
    -1.6635  -1.6493  -1.6414  -1.6149  -1.6099  -1.5910  -1.5740  -1.5007
    -1.4799  -1.3705  -1.3667  -1.3058  -1.1923  -1.1421  -1.1365  -1.0473
    -1.0457  -1.0385  -1.0217  -1.0163  -1.0043  -0.8524  -0.8389  -0.7728
    -0.5843  -0.5762  -0.5708  -0.5484  -0.5422  -0.5336  -0.5256  -0.4582
    -0.4388  -0.2580  -0.2317  -0.2029  -0.1813  -0.1742  -0.1610  -0.1406
    -0.1199  -0.0870  -0.0686  -0.0653  -0.0184  -0.0001   0.0399   0.0436
     0.0921   0.0992   0.1158   0.1185   0.1226   0.1463   0.1637   0.2756
     0.2846   0.2919   0.3016   0.3139   0.3402   0.3804   0.4048   0.4102
     0.4120   0.4166   0.4337   0.4361   0.4471   0.4647   0.4847   0.4928
     0.5049   0.5187   0.5259   0.5416   0.5475   0.6478   0.6784   0.6873
     0.7026   0.7465   0.7677   0.7812   0.7839   0.7899   0.8144   0.8676
     0.8738   0.8743   0.8902   0.9025   0.9268   0.9434   0.9545   1.0273
     1.0335   1.0421   1.0824   1.1383   1.1559   1.1765   1.1829   1.1917
     1.1996   1.2075   1.2500   1.2509   1.2535   1.2663   1.2721   1.2775
     1.3245   1.3302   1.3665   1.4022   1.4193   1.4291   1.4496   1.4775
     1.5238   1.5330   1.5547   1.5556   1.5724   1.6059   1.6218   1.6316
     1.6735   1.6765   1.6853   1.7001   1.7168   1.7246   1.7326   1.7844
     1.7973   1.8048   1.8215   1.8532   1.8880   1.9033   1.9084   2.0202
     2.0635   2.0704   2.0767   2.0950   2.1045   2.1478   2.1713   2.1902
     2.1930   2.2180   2.2279   2.2411   2.2482   2.2831   2.2839   2.2870
     2.3089   2.3166   2.3263   2.3422   2.3441   2.3569   2.4204   2.4277
     2.4310   2.4362   2.4408   2.4549   2.4631   2.6652   2.7778   2.9997
     3.0337   3.0970   3.1263   3.2017   3.3492   3.4719   3.6803   3.7540
     3.9189   4.0563   4.0601   4.0911   4.1628   4.5171   4.5593   4.6945
     4.8288   4.9388   5.0606   5.1492   5.2648   5.4296   5.4589   5.4780
     5.5802   5.6613   5.7111   6.4310   6.7689   6.9290   7.8066   7.8249
     7.8254   7.9728   7.9744   7.9794   8.4224   8.5144   8.5586   8.7522
     8.9092   8.9514   9.0295   9.2588   9.2622   9.3013   9.4557   9.5529
     9.5957   9.8856   9.8948  10.1338  10.5538  10.6274  10.7813  11.0038
    11.0386  11.1118  11.1671  11.2342  11.3545  11.4135  11.4160  11.8156
    11.8871  11.9009  11.9333  11.9625  12.0018  12.0126  12.0672  12.1606
    12.3120  12.3171  12.3939  12.6159  12.6521  12.6655  12.7332  12.7930
    12.8054  12.8244  12.8922  12.9015  12.9230  13.0495  13.1775  13.2833
    13.3423  13.5849

          k = 0.0442-0.0255 0.0000 ( 34862 PWs)   bands (ev):

    -8.9890  -5.8339  -4.7282  -4.4660  -3.7167  -3.6785  -3.5029  -2.8530
    -2.8483  -2.5854  -2.3437  -2.3060  -2.1913  -2.0529  -1.9900  -1.8869
    -1.8657  -1.8052  -1.6958  -1.6812  -1.5915  -1.3998  -1.3860  -1.3072
    -1.2920  -1.2571  -1.2359  -1.2121  -1.1808  -1.1255  -1.1070  -1.0837
    -0.9569  -0.9231  -0.8944  -0.8828  -0.8393  -0.7708  -0.7472  -0.7457
    -0.7269  -0.7063  -0.6476  -0.6064  -0.5791  -0.5447  -0.4694  -0.4431
    -0.4210  -0.3710  -0.3392  -0.3343  -0.2688  -0.2639  -0.2434  -0.2380
    -0.1459  -0.1230  -0.0867  -0.0743  -0.0405  -0.0097   0.0118   0.0880
     0.0955   0.1080   0.1560   0.1629   0.2076   0.2233   0.2299   0.2483
     0.2850   0.3072   0.3388   0.3466   0.3840   0.3985   0.4277   0.4321
     0.4464   0.4814   0.5101   0.5185   0.5294   0.5555   0.5750   0.5942
     0.6053   0.6182   0.6206   0.6402   0.6546   0.6729   0.6959   0.7030
     0.7308   0.7353   0.7489   0.7617   0.7805   0.8100   0.8176   0.8363
     0.8565   0.8612   0.8860   0.8891   0.8992   0.9076   0.9257   0.9331
     0.9793   0.9843   1.0096   1.0465   1.0755   1.0841   1.1235   1.1478
     1.1579   1.2180   1.2432   1.2467   1.2914   1.2928   1.3164   1.3243
     1.3516   1.3560   1.3706   1.3786   1.4062   1.4182   1.5134   1.5229
     1.5714   1.5786   1.5973   1.6157   1.6231   1.6621   1.6919   1.7093
     1.7252   1.7306   1.7486   1.7658   1.7831   1.8066   1.8160   1.8465
     1.8566   1.8807   1.8926   1.9232   1.9325   1.9707   1.9729   1.9826
     1.9962   2.0150   2.0205   2.0352   2.0662   2.0887   2.1267   2.1296
     2.1478   2.1575   2.1748   2.1776   2.1911   2.2242   2.2331   2.2692
     2.2705   2.2793   2.2965   2.3037   2.3055   2.3192   2.3385   2.3643
     2.4029   2.4121   2.4332   2.4420   2.4491   2.4573   2.5133   2.5424
     2.7933   2.8133   2.8875   2.9073   3.0593   3.1303   3.1968   3.3170
     3.5331   3.7931   3.9132   4.1170   4.2832   4.4035   4.4162   4.6553
     4.7887   5.0261   5.1482   5.3929   5.6108   5.6767   5.9374   6.1468
     6.3888   6.5878   6.8211   7.0236   7.0652   7.2455   7.3736   7.5155
     7.5631   8.2077   8.3340   8.4612   8.5471   8.9508   8.9956   9.0259
     9.1552   9.1822   9.2472   9.2640   9.3698   9.3785   9.4739   9.5524
     9.5759   9.6302   9.7846  10.0541  10.0914  10.2524  10.4592  10.4949
    10.6541  10.7953  10.8237  10.9473  10.9538  11.1334  11.2218  11.2866
    11.3369  11.4354  11.5869  11.6742  11.7098  11.7887  11.8995  11.9433
    11.9995  12.1710  12.2697  12.3173  12.3807  12.6000  12.6573  12.7569
    12.8374  13.0791  13.1484  13.1627  13.2018  13.2366  13.3071  13.4750
    13.5259  13.5660

     the Fermi energy is     2.1883 ev

!    total energy              =   -3634.76734392 Ry
     Harris-Foulkes estimate   =   -3634.76734320 Ry
     estimated scf accuracy    <       0.00000062 Ry

     The total energy is the sum of the following terms:

     one-electron contribution =  -24335.19900088 Ry
     hartree contribution      =   12567.95745921 Ry
     xc contribution           =   -1509.49926224 Ry
     ewald contribution        =    9642.13553960 Ry
     electric field correction =       0.00002496 Ry
     smearing contrib. (-TS)   =      -0.16210458 Ry

     total magnetization       =    19.96 Bohr mag/cell
     absolute magnetization    =    23.47 Bohr mag/cell

     convergence has been achieved in  13 iterations

     Forces acting on atoms (Ry/au):


     negative rho (up, down):  2.706E-04 2.134E-04
     atom    1 type  1   force =     0.00001708   -0.00060563    0.00537357
     atom    2 type  1   force =    -0.00109955   -0.00049613   -0.00556557
     atom    3 type  1   force =     0.00015097    0.00009983    0.00028488
     atom    4 type  1   force =     0.00079391    0.00054919    0.00039989
     atom    5 type  1   force =    -0.00054746    0.00036587    0.00540301
     atom    6 type  1   force =    -0.00103978   -0.00065541   -0.00558660
     atom    7 type  1   force =     0.00033429   -0.00046629   -0.00010839
     atom    8 type  1   force =     0.00139559   -0.00012148   -0.00037491
     atom    9 type  1   force =     0.00011382    0.00000341    0.00448122
     atom   10 type  1   force =    -0.00082573   -0.00055149   -0.00429608
     atom   11 type  1   force =    -0.00030275    0.00046948   -0.00000469
     atom   12 type  1   force =     0.00034152    0.00097834   -0.00031650
     atom   13 type  1   force =    -0.00018748   -0.00000094    0.00465287
     atom   14 type  1   force =    -0.00074358   -0.00042702   -0.00438026
     atom   15 type  1   force =    -0.00023501    0.00040634    0.00077767
     atom   16 type  1   force =     0.00116950    0.00088481    0.00043573
     atom   17 type  1   force =     0.00045995    0.00030030    0.00536225
     atom   18 type  1   force =    -0.00144895   -0.00083819   -0.00494146
     atom   19 type  1   force =     0.00026735   -0.00024922    0.00093292
     atom   20 type  1   force =    -0.00000929    0.00134034   -0.00049008
     atom   21 type  1   force =    -0.00012412   -0.00020784    0.00468524
     atom   22 type  1   force =    -0.00081333   -0.00045596   -0.00439611
     atom   23 type  1   force =    -0.00004707   -0.00015452   -0.00019898
     atom   24 type  1   force =     0.00113426    0.00001505   -0.00003797
     atom   25 type  1   force =     0.00011385    0.00010384    0.00459824
     atom   26 type  1   force =    -0.00058139   -0.00026455   -0.00561445
     atom   27 type  1   force =     0.00053654    0.00010744    0.00013304
     atom   28 type  1   force =     0.00058646    0.00030544    0.00012169
     atom   29 type  1   force =     0.00006526   -0.00005428    0.00438731
     atom   30 type  1   force =     0.00019688   -0.00082315   -0.00497195
     atom   31 type  1   force =    -0.00033215   -0.00008864    0.00038293
     atom   32 type  1   force =    -0.00045768   -0.00029139    0.00024912
     atom   33 type  1   force =    -0.00004366    0.00003279    0.00439428
     atom   34 type  1   force =    -0.00061696    0.00051311   -0.00495256
     atom   35 type  1   force =     0.00028640    0.00021441    0.00051821
     atom   36 type  1   force =     0.00045646    0.00019271    0.00008859
     atom   37 type  2   force =     0.00103587   -0.00013057   -0.00142609

     Total force =     0.021536     Total SCF correction =     0.002611
     SCF correction compared to forces is large: reduce conv_thr to get better values
 !ASE

     Writing output data file calc.save
 
     init_run     :     26.59s CPU     30.70s WALL (       1 calls)
     electrons    :  49768.04s CPU  57325.83s WALL (      27 calls)
     update_pot   :     59.66s CPU     63.24s WALL (      26 calls)
     forces       :   1241.93s CPU   1285.50s WALL (      27 calls)

     Called by init_run:
     wfcinit      :     17.52s CPU     21.19s WALL (       1 calls)
     potinit      :      0.90s CPU      1.02s WALL (       1 calls)

     Called by electrons:
     c_bands      :  32831.80s CPU  38632.34s WALL (     768 calls)
     sum_band     :  12236.67s CPU  13671.11s WALL (     768 calls)
     v_of_rho     :    265.84s CPU    307.82s WALL (     795 calls)
     newd         :   4514.45s CPU   4785.88s WALL (     795 calls)
     mix_rho      :     51.55s CPU     62.90s WALL (     768 calls)

     Called by c_bands:
     init_us_2    :    175.80s CPU    187.84s WALL (   15640 calls)
     cegterg      :  31800.24s CPU  37552.62s WALL (    7680 calls)

     Called by *egterg:
     h_psi        :  16632.60s CPU  21196.30s WALL (   19422 calls)
     s_psi        :   2667.64s CPU   2749.66s WALL (   19422 calls)
     g_psi        :     67.55s CPU     69.61s WALL (   11732 calls)
     cdiaghg      :   5047.50s CPU   5163.56s WALL (   19152 calls)

     Called by h_psi:
     add_vuspsi   :   2692.71s CPU   2776.48s WALL (   19422 calls)

     General routines
     calbec       :   4152.63s CPU   4239.28s WALL (   27372 calls)
     fft          :    245.69s CPU    288.78s WALL (   24888 calls)
     ffts         :      3.48s CPU      4.90s WALL (    3126 calls)
     fftw         :   9105.29s CPU  14421.69s WALL (11589626 calls)
     interpolate  :     28.81s CPU     41.71s WALL (    3126 calls)
     davcio       :      0.02s CPU      0.86s WALL (      10 calls)
 
     Parallel routines
     fft_scatter  :   5294.99s CPU   8444.97s WALL (11617640 calls)
 
     PWSCF        :    14h14m CPU       16h21m WALL

 
   This run was terminated on:   7:18:27  11Mar2017            

=------------------------------------------------------------------------------=
   JOB DONE.
=------------------------------------------------------------------------------=
