  python dir          : /home/vossj/suncat/lib/python2.7/site-packages/espresso
  espresso dir        : /home/vossj/suncat/esdld/espresso-dynpy-beef/bin
  pseudo dir          : /home/alatimer/bin/psp/esp_psp_w_gbrvRu/
  ase-espresso py git : ffa2778-git



     Program PWSCF v.5.1rc2 (svn rev. ) starts on 10Mar2017 at 15:11:23 

     This program is part of the open-source Quantum ESPRESSO suite
     for quantum simulation of materials; please cite
         "P. Giannozzi et al., J. Phys.:Condens. Matter 21 395502 (2009);
          URL http://www.quantum-espresso.org", 
     in publications or presentations arising from this work. More details at
     http://www.quantum-espresso.org/quote

     Parallel version (MPI), running on    16 processors
     R & G space division:  proc/nbgrp/npool/nimage =      16
     Reading input from pw.inp
     Message from routine read_cards :
     DEPRECATED: no units specified in CELL_PARAMETERS card

     Current dimensions of program PWSCF are:
     Max number of different atomic species (ntypx) = 10
     Max number of k-points (npk) =  40000
     Max angular momentum in pseudopotentials (lmaxx) =  3
     Presently no symmetry can be used with electric field


     IMPORTANT: XC functional enforced from input :
     Exchange-correlation      = RPBE ( 1  4 28  4 0)
     Any further DFT definition will be discarded
     Please, verify this is what you really want

               file Ni.UPF: wavefunction(s)  3D renormalized

     Subspace diagonalization in iterative solution of the eigenvalue problem:
     a serial algorithm will be used

 
     Parallelization info
     --------------------
     sticks:   dense  smooth     PW     G-vecs:    dense   smooth      PW
     Min         386     154     42                68872    17389    2480
     Max         387     155     43                68885    17439    2491
     Sum        6181    2479    673              1102011   278611   39737
 
     Generating pointlists ...
     new r_m :   0.4125 (alat units)  0.7795 (a.u.) for type    1
     new r_m :   0.4125 (alat units)  0.7795 (a.u.) for type    2


     bravais-lattice index     =            0
     lattice parameter (alat)  =       1.8897  a.u.
     unit-cell volume          =    7046.4111 (a.u.)^3
     number of atoms/cell      =           37
     number of atomic types    =            2
     number of electrons       =       366.00
     number of Kohn-Sham states=          283
     kinetic-energy cutoff     =      44.0992  Ry
     charge density cutoff     =     440.9919  Ry
     convergence threshold     =      7.3E-07
     mixing beta               =       0.1000
     number of iterations used =           10  plain     mixing
     Exchange-correlation      = RPBE ( 1  4 28  4 0)
     nstep                     =           50


     celldm(1)=   1.889726  celldm(2)=   0.000000  celldm(3)=   0.000000
     celldm(4)=   0.000000  celldm(5)=   0.000000  celldm(6)=   0.000000

     crystal axes: (cart. coord. in units of alat)
               a(1) = (   7.548011   0.000000   0.000000 )  
               a(2) = (  -3.774005   6.536769   0.000000 )  
               a(3) = (   0.000000   0.000000  21.162925 )  

     reciprocal axes: (cart. coord. in units 2 pi/alat)
               b(1) = (  0.132485  0.076490  0.000000 )  
               b(2) = (  0.000000  0.152981  0.000000 )  
               b(3) = (  0.000000  0.000000  0.047252 )  


     PseudoPot. # 1 for Ni read from file:
     /home/alatimer/bin/psp/esp_psp_w_gbrvRu/Ni.UPF
     MD5 check sum: 8b2449ee0060d9c33484ccd47bb60870
     Pseudo is Ultrasoft + core correction, Zval = 10.0
     Generated using "atomic" code by A. Dal Corso  v.5.0.2 svn rev. 9415
     Using radial grid of 1195 points,  6 beta functions with: 
                l(1) =   0
                l(2) =   0
                l(3) =   1
                l(4) =   1
                l(5) =   2
                l(6) =   2
     Q(r) pseudized with 0 coefficients 


     PseudoPot. # 2 for  O read from file:
     /home/alatimer/bin/psp/esp_psp_w_gbrvRu/O.UPF
     MD5 check sum: e057bbcf3229fb5d8c36c0c92f9568b4
     Pseudo is Ultrasoft + core correction, Zval =  6.0
     Generated using "atomic" code by A. Dal Corso  v.5.0.2 svn rev. 9415
     Using radial grid of 1095 points,  4 beta functions with: 
                l(1) =   0
                l(2) =   0
                l(3) =   1
                l(4) =   1
     Q(r) pseudized with 0 coefficients 


     atomic species   valence    mass     pseudopotential
        Ni1           10.00    58.69340     Ni( 1.00)
        O1             6.00    15.99940      O( 1.00)

     Starting magnetic structure 
     atomic species   magnetization
        Ni1          0.300
        O1           0.500

     No symmetry found



   Cartesian axes

     site n.     atom                  positions (alat units)
         1           Ni1 tau(   1) = (   0.0000000   0.0000000   7.5000000  )
         2           Ni1 tau(   2) = (   1.2580018   0.7263077   9.5543084  )
         3           Ni1 tau(   3) = (   0.0000000   1.4526154  11.6086168  )
         4           Ni1 tau(   4) = (   1.2580018   2.1789231  13.6629252  )
         5           Ni1 tau(   5) = (  -1.2580018   2.1789231   7.5000000  )
         6           Ni1 tau(   6) = (   0.0000000   2.9052308   9.5543084  )
         7           Ni1 tau(   7) = (  -1.2580018   3.6315385  11.6086168  )
         8           Ni1 tau(   8) = (  -0.0000000   4.3578462  13.6629252  )
         9           Ni1 tau(   9) = (  -2.5160037   4.3578462   7.5000000  )
        10           Ni1 tau(  10) = (  -1.2580018   5.0841539   9.5543084  )
        11           Ni1 tau(  11) = (  -2.5160037   5.8104616  11.6086168  )
        12           Ni1 tau(  12) = (  -1.2580018   6.5367693  13.6629252  )
        13           Ni1 tau(  13) = (   2.5160037   0.0000000   7.5000000  )
        14           Ni1 tau(  14) = (   3.7740055   0.7263077   9.5543084  )
        15           Ni1 tau(  15) = (   2.5160037   1.4526154  11.6086168  )
        16           Ni1 tau(  16) = (   3.7740055   2.1789231  13.6629252  )
        17           Ni1 tau(  17) = (   1.2580018   2.1789231   7.5000000  )
        18           Ni1 tau(  18) = (   2.5160037   2.9052308   9.5543084  )
        19           Ni1 tau(  19) = (   1.2580018   3.6315385  11.6086168  )
        20           Ni1 tau(  20) = (   2.5160037   4.3578462  13.6629252  )
        21           Ni1 tau(  21) = (  -0.0000000   4.3578462   7.5000000  )
        22           Ni1 tau(  22) = (   1.2580018   5.0841539   9.5543084  )
        23           Ni1 tau(  23) = (  -0.0000000   5.8104616  11.6086168  )
        24           Ni1 tau(  24) = (   1.2580018   6.5367693  13.6629252  )
        25           Ni1 tau(  25) = (   5.0320073   0.0000000   7.5000000  )
        26           Ni1 tau(  26) = (   6.2900092   0.7263077   9.5543084  )
        27           Ni1 tau(  27) = (   5.0320073   1.4526154  11.6086168  )
        28           Ni1 tau(  28) = (   6.2900092   2.1789231  13.6629252  )
        29           Ni1 tau(  29) = (   3.7740055   2.1789231   7.5000000  )
        30           Ni1 tau(  30) = (   5.0320073   2.9052308   9.5543084  )
        31           Ni1 tau(  31) = (   3.7740055   3.6315385  11.6086168  )
        32           Ni1 tau(  32) = (   5.0320073   4.3578462  13.6629252  )
        33           Ni1 tau(  33) = (   2.5160037   4.3578462   7.5000000  )
        34           Ni1 tau(  34) = (   3.7740055   5.0841539   9.5543084  )
        35           Ni1 tau(  35) = (   2.5160037   5.8104616  11.6086168  )
        36           Ni1 tau(  36) = (   3.7740055   6.5367693  13.6629252  )
        37           O1  tau(  37) = (   1.2580018   2.1789231  15.3629252  )

     number of k points=    10  Fermi-Dirac smearing, width (Ry)=  0.0073
                       cart. coord. in units 2pi/alat
        k(    1) = (   0.0000000   0.0000000   0.0000000), wk =   0.1111111
        k(    2) = (   0.0000000   0.0509936   0.0000000), wk =   0.2222222
        k(    3) = (   0.0441617   0.0254968   0.0000000), wk =   0.2222222
        k(    4) = (   0.0441617   0.0764904   0.0000000), wk =   0.2222222
        k(    5) = (   0.0441617  -0.0254968   0.0000000), wk =   0.2222222
        k(    6) = (   0.0000000   0.0000000   0.0000000), wk =   0.1111111
        k(    7) = (   0.0000000   0.0509936   0.0000000), wk =   0.2222222
        k(    8) = (   0.0441617   0.0254968   0.0000000), wk =   0.2222222
        k(    9) = (   0.0441617   0.0764904   0.0000000), wk =   0.2222222
        k(   10) = (   0.0441617  -0.0254968   0.0000000), wk =   0.2222222

     Dense  grid:  1102011 G-vectors     FFT dimensions: (  96,  96, 270)

     Smooth grid:   278611 G-vectors     FFT dimensions: (  64,  64, 180)

     Largest allocated arrays     est. size (Mb)     dimensions
        Kohn-Sham Wavefunctions         9.43 Mb     (    2183,  283)
        NL pseudopotentials            21.85 Mb     (    2183,  656)
        Each V/rho on FFT grid          4.78 Mb     (  156672,   2)
        Each G-vector array             0.53 Mb     (   68874)
        G-vector shells                 0.19 Mb     (   24563)
     Largest temporary arrays     est. size (Mb)     dimensions
        Auxiliary wavefunctions        37.71 Mb     (    2183, 1132)
        Each subspace H/S matrix       19.55 Mb     (    1132, 1132)
        Each <psi_i|beta_j> matrix      2.83 Mb     (     656,  283)
        Arrays for rho mixing          23.91 Mb     (  156672,   10)

     Check: negative/imaginary core charge=   -0.000003    0.000000

     Initial potential from superposition of free atoms
     Check: negative starting charge=(component1):   -0.000371
     Check: negative starting charge=(component2):   -0.000195

     starting charge  365.99096, renormalised to  366.00000

     negative rho (up, down):  3.709E-04 1.954E-04
 
     Adding external electric field

     Computed dipole along edir(3) : 
        Dipole               -0.0013 Ry au,         -0.0034 Debye
        Dipole field         -0.0000 Ry au
 
        Potential amp.        0.0002 Ry
        Total length         38.9923 bohr
 
 
     Adding external electric field

     Computed dipole along edir(3) : 
        Dipole               -0.0013 Ry au,         -0.0034 Debye
        Dipole field         -0.0000 Ry au
 
        Potential amp.        0.0002 Ry
        Total length         38.9923 bohr
 
     Starting wfc are  328 randomized atomic wfcs

     total cpu time spent up to now is       31.5 secs

     Self-consistent Calculation

     iteration #  1     ecut=    44.10 Ry     beta=0.10
     Davidson diagonalization with overlap
     ethr =  1.00E-02,  avg # of iterations =  7.1

     negative rho (up, down):  3.350E-04 1.712E-04
 
     Adding external electric field

     Computed dipole along edir(3) : 
        Dipole                0.0856 Ry au,          0.2177 Debye
        Dipole field          0.0002 Ry au
 
        Potential amp.       -0.0119 Ry
        Total length         38.9923 bohr
 
 
     Adding external electric field

     Computed dipole along edir(3) : 
        Dipole                0.0856 Ry au,          0.2177 Debye
        Dipole field          0.0002 Ry au
 
        Potential amp.       -0.0119 Ry
        Total length         38.9923 bohr
 
 
     Magnetic moment per site:
     atom:    1    charge:    3.9496    magn:    1.1258    constr:    0.0000
     atom:    2    charge:    3.9681    magn:    1.1118    constr:    0.0000
     atom:    3    charge:    3.9701    magn:    1.1096    constr:    0.0000
     atom:    4    charge:    3.9365    magn:    1.1382    constr:    0.0000
     atom:    5    charge:    3.9495    magn:    1.1258    constr:    0.0000
     atom:    6    charge:    3.9681    magn:    1.1118    constr:    0.0000
     atom:    7    charge:    3.9684    magn:    1.1114    constr:    0.0000
     atom:    8    charge:    3.9498    magn:    1.1263    constr:    0.0000
     atom:    9    charge:    3.9494    magn:    1.1258    constr:    0.0000
     atom:   10    charge:    3.9680    magn:    1.1116    constr:    0.0000
     atom:   11    charge:    3.9683    magn:    1.1114    constr:    0.0000
     atom:   12    charge:    3.9498    magn:    1.1263    constr:    0.0000
     atom:   13    charge:    3.9495    magn:    1.1258    constr:    0.0000
     atom:   14    charge:    3.9685    magn:    1.1110    constr:    0.0000
     atom:   15    charge:    3.9701    magn:    1.1096    constr:    0.0000
     atom:   16    charge:    3.9498    magn:    1.1263    constr:    0.0000
     atom:   17    charge:    3.9493    magn:    1.1263    constr:    0.0000
     atom:   18    charge:    3.9681    magn:    1.1118    constr:    0.0000
     atom:   19    charge:    3.9701    magn:    1.1096    constr:    0.0000
     atom:   20    charge:    3.9498    magn:    1.1263    constr:    0.0000
     atom:   21    charge:    3.9495    magn:    1.1258    constr:    0.0000
     atom:   22    charge:    3.9685    magn:    1.1110    constr:    0.0000
     atom:   23    charge:    3.9681    magn:    1.1118    constr:    0.0000
     atom:   24    charge:    3.9491    magn:    1.1264    constr:    0.0000
     atom:   25    charge:    3.9481    magn:    1.1267    constr:    0.0000
     atom:   26    charge:    3.9685    magn:    1.1110    constr:    0.0000
     atom:   27    charge:    3.9681    magn:    1.1118    constr:    0.0000
     atom:   28    charge:    3.9498    magn:    1.1263    constr:    0.0000
     atom:   29    charge:    3.9495    magn:    1.1258    constr:    0.0000
     atom:   30    charge:    3.9680    magn:    1.1115    constr:    0.0000
     atom:   31    charge:    3.9683    magn:    1.1114    constr:    0.0000
     atom:   32    charge:    3.9492    magn:    1.1262    constr:    0.0000
     atom:   33    charge:    3.9495    magn:    1.1258    constr:    0.0000
     atom:   34    charge:    3.9680    magn:    1.1116    constr:    0.0000
     atom:   35    charge:    3.9681    magn:    1.1118    constr:    0.0000
     atom:   36    charge:    3.9498    magn:    1.1263    constr:    0.0000
     atom:   37    charge:    1.9938    magn:    0.9587    constr:    0.0000

     total cpu time spent up to now is      156.0 secs

     total energy              =   -3653.93354401 Ry
     Harris-Foulkes estimate   =   -3654.87288899 Ry
     estimated scf accuracy    <      10.01315917 Ry

     total magnetization       =    37.78 Bohr mag/cell
     absolute magnetization    =    37.82 Bohr mag/cell

     iteration #  2     ecut=    44.10 Ry     beta=0.10
     Davidson diagonalization with overlap
     ethr =  2.74E-03,  avg # of iterations =  2.3

     negative rho (up, down):  3.322E-04 1.960E-04
 
     Adding external electric field

     Computed dipole along edir(3) : 
        Dipole               -0.2650 Ry au,         -0.6736 Debye
        Dipole field         -0.0005 Ry au
 
        Potential amp.        0.0369 Ry
        Total length         38.9923 bohr
 
 
     Adding external electric field

     Computed dipole along edir(3) : 
        Dipole               -0.2650 Ry au,         -0.6736 Debye
        Dipole field         -0.0005 Ry au
 
        Potential amp.        0.0369 Ry
        Total length         38.9923 bohr
 
 
     Magnetic moment per site:
     atom:    1    charge:    3.9627    magn:    1.1030    constr:    0.0000
     atom:    2    charge:    3.9558    magn:    1.1085    constr:    0.0000
     atom:    3    charge:    3.9575    magn:    1.1061    constr:    0.0000
     atom:    4    charge:    3.9504    magn:    1.1164    constr:    0.0000
     atom:    5    charge:    3.9627    magn:    1.1030    constr:    0.0000
     atom:    6    charge:    3.9558    magn:    1.1085    constr:    0.0000
     atom:    7    charge:    3.9572    magn:    1.1069    constr:    0.0000
     atom:    8    charge:    3.9637    magn:    1.1029    constr:    0.0000
     atom:    9    charge:    3.9626    magn:    1.1029    constr:    0.0000
     atom:   10    charge:    3.9559    magn:    1.1080    constr:    0.0000
     atom:   11    charge:    3.9572    magn:    1.1069    constr:    0.0000
     atom:   12    charge:    3.9637    magn:    1.1029    constr:    0.0000
     atom:   13    charge:    3.9627    magn:    1.1030    constr:    0.0000
     atom:   14    charge:    3.9560    magn:    1.1077    constr:    0.0000
     atom:   15    charge:    3.9575    magn:    1.1061    constr:    0.0000
     atom:   16    charge:    3.9636    magn:    1.1029    constr:    0.0000
     atom:   17    charge:    3.9625    magn:    1.1035    constr:    0.0000
     atom:   18    charge:    3.9558    magn:    1.1085    constr:    0.0000
     atom:   19    charge:    3.9575    magn:    1.1061    constr:    0.0000
     atom:   20    charge:    3.9636    magn:    1.1029    constr:    0.0000
     atom:   21    charge:    3.9627    magn:    1.1030    constr:    0.0000
     atom:   22    charge:    3.9560    magn:    1.1077    constr:    0.0000
     atom:   23    charge:    3.9568    magn:    1.1076    constr:    0.0000
     atom:   24    charge:    3.9630    magn:    1.1029    constr:    0.0000
     atom:   25    charge:    3.9616    magn:    1.1037    constr:    0.0000
     atom:   26    charge:    3.9560    magn:    1.1077    constr:    0.0000
     atom:   27    charge:    3.9568    magn:    1.1076    constr:    0.0000
     atom:   28    charge:    3.9637    magn:    1.1029    constr:    0.0000
     atom:   29    charge:    3.9627    magn:    1.1030    constr:    0.0000
     atom:   30    charge:    3.9559    magn:    1.1080    constr:    0.0000
     atom:   31    charge:    3.9572    magn:    1.1069    constr:    0.0000
     atom:   32    charge:    3.9630    magn:    1.1028    constr:    0.0000
     atom:   33    charge:    3.9627    magn:    1.1030    constr:    0.0000
     atom:   34    charge:    3.9559    magn:    1.1080    constr:    0.0000
     atom:   35    charge:    3.9568    magn:    1.1076    constr:    0.0000
     atom:   36    charge:    3.9637    magn:    1.1029    constr:    0.0000
     atom:   37    charge:    2.0043    magn:    0.9420    constr:    0.0000

     total cpu time spent up to now is      229.5 secs

     total energy              =   -3653.81745983 Ry
     Harris-Foulkes estimate   =   -3656.17804868 Ry
     estimated scf accuracy    <      54.72700878 Ry

     total magnetization       =    39.92 Bohr mag/cell
     absolute magnetization    =    40.16 Bohr mag/cell

     iteration #  3     ecut=    44.10 Ry     beta=0.10
     Davidson diagonalization with overlap
     ethr =  2.74E-03,  avg # of iterations =  1.1

     negative rho (up, down):  3.342E-04 2.234E-04
 
     Adding external electric field

     Computed dipole along edir(3) : 
        Dipole                0.3622 Ry au,          0.9206 Debye
        Dipole field          0.0006 Ry au
 
        Potential amp.       -0.0504 Ry
        Total length         38.9923 bohr
 
 
     Adding external electric field

     Computed dipole along edir(3) : 
        Dipole                0.3622 Ry au,          0.9206 Debye
        Dipole field          0.0006 Ry au
 
        Potential amp.       -0.0504 Ry
        Total length         38.9923 bohr
 
 
     Magnetic moment per site:
     atom:    1    charge:    3.9666    magn:    1.0917    constr:    0.0000
     atom:    2    charge:    3.9570    magn:    1.0992    constr:    0.0000
     atom:    3    charge:    3.9565    magn:    1.0988    constr:    0.0000
     atom:    4    charge:    3.9502    magn:    1.1095    constr:    0.0000
     atom:    5    charge:    3.9666    magn:    1.0917    constr:    0.0000
     atom:    6    charge:    3.9570    magn:    1.0992    constr:    0.0000
     atom:    7    charge:    3.9560    magn:    1.0998    constr:    0.0000
     atom:    8    charge:    3.9624    magn:    1.0965    constr:    0.0000
     atom:    9    charge:    3.9665    magn:    1.0916    constr:    0.0000
     atom:   10    charge:    3.9571    magn:    1.0987    constr:    0.0000
     atom:   11    charge:    3.9560    magn:    1.0998    constr:    0.0000
     atom:   12    charge:    3.9624    magn:    1.0965    constr:    0.0000
     atom:   13    charge:    3.9666    magn:    1.0917    constr:    0.0000
     atom:   14    charge:    3.9572    magn:    1.0984    constr:    0.0000
     atom:   15    charge:    3.9565    magn:    1.0988    constr:    0.0000
     atom:   16    charge:    3.9624    magn:    1.0965    constr:    0.0000
     atom:   17    charge:    3.9664    magn:    1.0922    constr:    0.0000
     atom:   18    charge:    3.9570    magn:    1.0992    constr:    0.0000
     atom:   19    charge:    3.9565    magn:    1.0988    constr:    0.0000
     atom:   20    charge:    3.9624    magn:    1.0965    constr:    0.0000
     atom:   21    charge:    3.9666    magn:    1.0917    constr:    0.0000
     atom:   22    charge:    3.9572    magn:    1.0985    constr:    0.0000
     atom:   23    charge:    3.9557    magn:    1.1006    constr:    0.0000
     atom:   24    charge:    3.9618    magn:    1.0964    constr:    0.0000
     atom:   25    charge:    3.9658    magn:    1.0922    constr:    0.0000
     atom:   26    charge:    3.9572    magn:    1.0985    constr:    0.0000
     atom:   27    charge:    3.9557    magn:    1.1006    constr:    0.0000
     atom:   28    charge:    3.9624    magn:    1.0965    constr:    0.0000
     atom:   29    charge:    3.9666    magn:    1.0917    constr:    0.0000
     atom:   30    charge:    3.9571    magn:    1.0987    constr:    0.0000
     atom:   31    charge:    3.9560    magn:    1.0998    constr:    0.0000
     atom:   32    charge:    3.9617    magn:    1.0964    constr:    0.0000
     atom:   33    charge:    3.9666    magn:    1.0917    constr:    0.0000
     atom:   34    charge:    3.9571    magn:    1.0987    constr:    0.0000
     atom:   35    charge:    3.9557    magn:    1.1006    constr:    0.0000
     atom:   36    charge:    3.9624    magn:    1.0965    constr:    0.0000
     atom:   37    charge:    2.0061    magn:    0.9353    constr:    0.0000

     total cpu time spent up to now is      297.7 secs

     total energy              =   -3654.63792335 Ry
     Harris-Foulkes estimate   =   -3654.95663451 Ry
     estimated scf accuracy    <      15.34019330 Ry

     total magnetization       =    38.85 Bohr mag/cell
     absolute magnetization    =    38.95 Bohr mag/cell

     iteration #  4     ecut=    44.10 Ry     beta=0.10
     Davidson diagonalization with overlap
     ethr =  2.74E-03,  avg # of iterations =  1.2

     negative rho (up, down):  3.295E-04 1.979E-04
 
     Adding external electric field

     Computed dipole along edir(3) : 
        Dipole               -0.2828 Ry au,         -0.7189 Debye
        Dipole field         -0.0005 Ry au
 
        Potential amp.        0.0393 Ry
        Total length         38.9923 bohr
 
 
     Adding external electric field

     Computed dipole along edir(3) : 
        Dipole               -0.2828 Ry au,         -0.7189 Debye
        Dipole field         -0.0005 Ry au
 
        Potential amp.        0.0393 Ry
        Total length         38.9923 bohr
 
 
     Magnetic moment per site:
     atom:    1    charge:    3.9775    magn:    0.9879    constr:    0.0000
     atom:    2    charge:    3.9621    magn:    0.9959    constr:    0.0000
     atom:    3    charge:    3.9599    magn:    0.9957    constr:    0.0000
     atom:    4    charge:    3.9624    magn:    1.0134    constr:    0.0000
     atom:    5    charge:    3.9775    magn:    0.9878    constr:    0.0000
     atom:    6    charge:    3.9621    magn:    0.9959    constr:    0.0000
     atom:    7    charge:    3.9596    magn:    0.9974    constr:    0.0000
     atom:    8    charge:    3.9757    magn:    0.9922    constr:    0.0000
     atom:    9    charge:    3.9778    magn:    0.9873    constr:    0.0000
     atom:   10    charge:    3.9620    magn:    0.9953    constr:    0.0000
     atom:   11    charge:    3.9596    magn:    0.9974    constr:    0.0000
     atom:   12    charge:    3.9756    magn:    0.9922    constr:    0.0000
     atom:   13    charge:    3.9775    magn:    0.9878    constr:    0.0000
     atom:   14    charge:    3.9627    magn:    0.9944    constr:    0.0000
     atom:   15    charge:    3.9599    magn:    0.9957    constr:    0.0000
     atom:   16    charge:    3.9757    magn:    0.9922    constr:    0.0000
     atom:   17    charge:    3.9777    magn:    0.9880    constr:    0.0000
     atom:   18    charge:    3.9621    magn:    0.9959    constr:    0.0000
     atom:   19    charge:    3.9599    magn:    0.9957    constr:    0.0000
     atom:   20    charge:    3.9757    magn:    0.9922    constr:    0.0000
     atom:   21    charge:    3.9775    magn:    0.9878    constr:    0.0000
     atom:   22    charge:    3.9627    magn:    0.9944    constr:    0.0000
     atom:   23    charge:    3.9598    magn:    0.9987    constr:    0.0000
     atom:   24    charge:    3.9757    magn:    0.9905    constr:    0.0000
     atom:   25    charge:    3.9812    magn:    0.9847    constr:    0.0000
     atom:   26    charge:    3.9627    magn:    0.9945    constr:    0.0000
     atom:   27    charge:    3.9598    magn:    0.9987    constr:    0.0000
     atom:   28    charge:    3.9756    magn:    0.9922    constr:    0.0000
     atom:   29    charge:    3.9775    magn:    0.9879    constr:    0.0000
     atom:   30    charge:    3.9620    magn:    0.9953    constr:    0.0000
     atom:   31    charge:    3.9596    magn:    0.9974    constr:    0.0000
     atom:   32    charge:    3.9756    magn:    0.9907    constr:    0.0000
     atom:   33    charge:    3.9775    magn:    0.9879    constr:    0.0000
     atom:   34    charge:    3.9620    magn:    0.9953    constr:    0.0000
     atom:   35    charge:    3.9598    magn:    0.9987    constr:    0.0000
     atom:   36    charge:    3.9756    magn:    0.9922    constr:    0.0000
     atom:   37    charge:    2.0337    magn:    0.8494    constr:    0.0000

     total cpu time spent up to now is      366.3 secs

     total energy              =   -3655.02554470 Ry
     Harris-Foulkes estimate   =   -3655.21630935 Ry
     estimated scf accuracy    <      60.75658019 Ry

     total magnetization       =    38.81 Bohr mag/cell
     absolute magnetization    =    38.97 Bohr mag/cell

     iteration #  5     ecut=    44.10 Ry     beta=0.10
     Davidson diagonalization with overlap
     ethr =  2.74E-03,  avg # of iterations =  1.2

     negative rho (up, down):  3.277E-04 1.986E-04
 
     Adding external electric field

     Computed dipole along edir(3) : 
        Dipole               -0.2335 Ry au,         -0.5936 Debye
        Dipole field         -0.0004 Ry au
 
        Potential amp.        0.0325 Ry
        Total length         38.9923 bohr
 
 
     Adding external electric field

     Computed dipole along edir(3) : 
        Dipole               -0.2335 Ry au,         -0.5936 Debye
        Dipole field         -0.0004 Ry au
 
        Potential amp.        0.0325 Ry
        Total length         38.9923 bohr
 
 
     Magnetic moment per site:
     atom:    1    charge:    3.9796    magn:    0.9322    constr:    0.0000
     atom:    2    charge:    3.9600    magn:    0.9447    constr:    0.0000
     atom:    3    charge:    3.9628    magn:    0.9400    constr:    0.0000
     atom:    4    charge:    3.9494    magn:    0.9746    constr:    0.0000
     atom:    5    charge:    3.9795    magn:    0.9322    constr:    0.0000
     atom:    6    charge:    3.9600    magn:    0.9447    constr:    0.0000
     atom:    7    charge:    3.9638    magn:    0.9413    constr:    0.0000
     atom:    8    charge:    3.9775    magn:    0.9379    constr:    0.0000
     atom:    9    charge:    3.9800    magn:    0.9313    constr:    0.0000
     atom:   10    charge:    3.9603    magn:    0.9436    constr:    0.0000
     atom:   11    charge:    3.9638    magn:    0.9413    constr:    0.0000
     atom:   12    charge:    3.9775    magn:    0.9379    constr:    0.0000
     atom:   13    charge:    3.9795    magn:    0.9323    constr:    0.0000
     atom:   14    charge:    3.9589    magn:    0.9445    constr:    0.0000
     atom:   15    charge:    3.9628    magn:    0.9401    constr:    0.0000
     atom:   16    charge:    3.9775    magn:    0.9380    constr:    0.0000
     atom:   17    charge:    3.9803    magn:    0.9319    constr:    0.0000
     atom:   18    charge:    3.9600    magn:    0.9447    constr:    0.0000
     atom:   19    charge:    3.9628    magn:    0.9401    constr:    0.0000
     atom:   20    charge:    3.9775    magn:    0.9379    constr:    0.0000
     atom:   21    charge:    3.9795    magn:    0.9323    constr:    0.0000
     atom:   22    charge:    3.9589    magn:    0.9445    constr:    0.0000
     atom:   23    charge:    3.9629    magn:    0.9441    constr:    0.0000
     atom:   24    charge:    3.9787    magn:    0.9342    constr:    0.0000
     atom:   25    charge:    3.9728    magn:    0.9372    constr:    0.0000
     atom:   26    charge:    3.9589    magn:    0.9445    constr:    0.0000
     atom:   27    charge:    3.9629    magn:    0.9441    constr:    0.0000
     atom:   28    charge:    3.9776    magn:    0.9379    constr:    0.0000
     atom:   29    charge:    3.9795    magn:    0.9322    constr:    0.0000
     atom:   30    charge:    3.9604    magn:    0.9436    constr:    0.0000
     atom:   31    charge:    3.9638    magn:    0.9413    constr:    0.0000
     atom:   32    charge:    3.9792    magn:    0.9340    constr:    0.0000
     atom:   33    charge:    3.9795    magn:    0.9322    constr:    0.0000
     atom:   34    charge:    3.9604    magn:    0.9436    constr:    0.0000
     atom:   35    charge:    3.9629    magn:    0.9441    constr:    0.0000
     atom:   36    charge:    3.9776    magn:    0.9379    constr:    0.0000
     atom:   37    charge:    2.0400    magn:    0.8049    constr:    0.0000

     total cpu time spent up to now is      435.1 secs

     total energy              =   -3655.52210474 Ry
     Harris-Foulkes estimate   =   -3655.34541329 Ry
     estimated scf accuracy    <       1.84911250 Ry

     total magnetization       =    38.62 Bohr mag/cell
     absolute magnetization    =    38.93 Bohr mag/cell

     iteration #  6     ecut=    44.10 Ry     beta=0.10
     Davidson diagonalization with overlap
     ethr =  5.05E-04,  avg # of iterations = 11.9

     negative rho (up, down):  3.289E-04 2.121E-04
 
     Adding external electric field

     Computed dipole along edir(3) : 
        Dipole               -0.2657 Ry au,         -0.6754 Debye
        Dipole field         -0.0005 Ry au
 
        Potential amp.        0.0370 Ry
        Total length         38.9923 bohr
 
 
     Adding external electric field

     Computed dipole along edir(3) : 
        Dipole               -0.2657 Ry au,         -0.6754 Debye
        Dipole field         -0.0005 Ry au
 
        Potential amp.        0.0370 Ry
        Total length         38.9923 bohr
 
 
     Magnetic moment per site:
     atom:    1    charge:    3.9734    magn:    0.8481    constr:    0.0000
     atom:    2    charge:    3.9618    magn:    0.8578    constr:    0.0000
     atom:    3    charge:    3.9631    magn:    0.8529    constr:    0.0000
     atom:    4    charge:    3.9470    magn:    0.8995    constr:    0.0000
     atom:    5    charge:    3.9734    magn:    0.8481    constr:    0.0000
     atom:    6    charge:    3.9618    magn:    0.8578    constr:    0.0000
     atom:    7    charge:    3.9609    magn:    0.8576    constr:    0.0000
     atom:    8    charge:    3.9783    magn:    0.8505    constr:    0.0000
     atom:    9    charge:    3.9701    magn:    0.8500    constr:    0.0000
     atom:   10    charge:    3.9616    magn:    0.8567    constr:    0.0000
     atom:   11    charge:    3.9609    magn:    0.8576    constr:    0.0000
     atom:   12    charge:    3.9783    magn:    0.8504    constr:    0.0000
     atom:   13    charge:    3.9734    magn:    0.8481    constr:    0.0000
     atom:   14    charge:    3.9644    magn:    0.8542    constr:    0.0000
     atom:   15    charge:    3.9631    magn:    0.8529    constr:    0.0000
     atom:   16    charge:    3.9783    magn:    0.8504    constr:    0.0000
     atom:   17    charge:    3.9715    magn:    0.8500    constr:    0.0000
     atom:   18    charge:    3.9618    magn:    0.8578    constr:    0.0000
     atom:   19    charge:    3.9631    magn:    0.8529    constr:    0.0000
     atom:   20    charge:    3.9783    magn:    0.8504    constr:    0.0000
     atom:   21    charge:    3.9735    magn:    0.8480    constr:    0.0000
     atom:   22    charge:    3.9644    magn:    0.8542    constr:    0.0000
     atom:   23    charge:    3.9618    magn:    0.8599    constr:    0.0000
     atom:   24    charge:    3.9761    magn:    0.8471    constr:    0.0000
     atom:   25    charge:    3.9773    magn:    0.8446    constr:    0.0000
     atom:   26    charge:    3.9644    magn:    0.8542    constr:    0.0000
     atom:   27    charge:    3.9618    magn:    0.8599    constr:    0.0000
     atom:   28    charge:    3.9783    magn:    0.8505    constr:    0.0000
     atom:   29    charge:    3.9734    magn:    0.8481    constr:    0.0000
     atom:   30    charge:    3.9616    magn:    0.8567    constr:    0.0000
     atom:   31    charge:    3.9609    magn:    0.8576    constr:    0.0000
     atom:   32    charge:    3.9740    magn:    0.8493    constr:    0.0000
     atom:   33    charge:    3.9734    magn:    0.8481    constr:    0.0000
     atom:   34    charge:    3.9616    magn:    0.8567    constr:    0.0000
     atom:   35    charge:    3.9618    magn:    0.8599    constr:    0.0000
     atom:   36    charge:    3.9783    magn:    0.8505    constr:    0.0000
     atom:   37    charge:    2.0472    magn:    0.7314    constr:    0.0000

     total cpu time spent up to now is      553.1 secs

     total energy              =   -3655.82325284 Ry
     Harris-Foulkes estimate   =   -3655.56743225 Ry
     estimated scf accuracy    <       1.46017633 Ry

     total magnetization       =    38.21 Bohr mag/cell
     absolute magnetization    =    38.69 Bohr mag/cell

     iteration #  7     ecut=    44.10 Ry     beta=0.10
     Davidson diagonalization with overlap
     ethr =  3.99E-04,  avg # of iterations =  2.5

     negative rho (up, down):  3.389E-04 2.576E-04
 
     Adding external electric field

     Computed dipole along edir(3) : 
        Dipole               -0.2576 Ry au,         -0.6548 Debye
        Dipole field         -0.0005 Ry au
 
        Potential amp.        0.0358 Ry
        Total length         38.9923 bohr
 
 
     Adding external electric field

     Computed dipole along edir(3) : 
        Dipole               -0.2576 Ry au,         -0.6548 Debye
        Dipole field         -0.0005 Ry au
 
        Potential amp.        0.0358 Ry
        Total length         38.9923 bohr
 
 
     Magnetic moment per site:
     atom:    1    charge:    3.9674    magn:    0.7546    constr:    0.0000
     atom:    2    charge:    3.9650    magn:    0.7602    constr:    0.0000
     atom:    3    charge:    3.9628    magn:    0.7563    constr:    0.0000
     atom:    4    charge:    3.9541    magn:    0.8094    constr:    0.0000
     atom:    5    charge:    3.9674    magn:    0.7546    constr:    0.0000
     atom:    6    charge:    3.9650    magn:    0.7602    constr:    0.0000
     atom:    7    charge:    3.9644    magn:    0.7593    constr:    0.0000
     atom:    8    charge:    3.9739    magn:    0.7573    constr:    0.0000
     atom:    9    charge:    3.9709    magn:    0.7512    constr:    0.0000
     atom:   10    charge:    3.9657    magn:    0.7580    constr:    0.0000
     atom:   11    charge:    3.9645    magn:    0.7593    constr:    0.0000
     atom:   12    charge:    3.9739    magn:    0.7573    constr:    0.0000
     atom:   13    charge:    3.9674    magn:    0.7546    constr:    0.0000
     atom:   14    charge:    3.9626    magn:    0.7600    constr:    0.0000
     atom:   15    charge:    3.9628    magn:    0.7563    constr:    0.0000
     atom:   16    charge:    3.9739    magn:    0.7573    constr:    0.0000
     atom:   17    charge:    3.9697    magn:    0.7533    constr:    0.0000
     atom:   18    charge:    3.9650    magn:    0.7602    constr:    0.0000
     atom:   19    charge:    3.9628    magn:    0.7564    constr:    0.0000
     atom:   20    charge:    3.9739    magn:    0.7573    constr:    0.0000
     atom:   21    charge:    3.9673    magn:    0.7547    constr:    0.0000
     atom:   22    charge:    3.9626    magn:    0.7601    constr:    0.0000
     atom:   23    charge:    3.9622    magn:    0.7653    constr:    0.0000
     atom:   24    charge:    3.9704    magn:    0.7527    constr:    0.0000
     atom:   25    charge:    3.9649    magn:    0.7563    constr:    0.0000
     atom:   26    charge:    3.9626    magn:    0.7600    constr:    0.0000
     atom:   27    charge:    3.9622    magn:    0.7653    constr:    0.0000
     atom:   28    charge:    3.9739    magn:    0.7573    constr:    0.0000
     atom:   29    charge:    3.9674    magn:    0.7546    constr:    0.0000
     atom:   30    charge:    3.9657    magn:    0.7580    constr:    0.0000
     atom:   31    charge:    3.9644    magn:    0.7593    constr:    0.0000
     atom:   32    charge:    3.9738    magn:    0.7506    constr:    0.0000
     atom:   33    charge:    3.9674    magn:    0.7546    constr:    0.0000
     atom:   34    charge:    3.9657    magn:    0.7580    constr:    0.0000
     atom:   35    charge:    3.9622    magn:    0.7653    constr:    0.0000
     atom:   36    charge:    3.9739    magn:    0.7573    constr:    0.0000
     atom:   37    charge:    2.0505    magn:    0.6495    constr:    0.0000

     total cpu time spent up to now is      626.7 secs

     total energy              =   -3656.07890265 Ry
     Harris-Foulkes estimate   =   -3655.86408586 Ry
     estimated scf accuracy    <       1.23441757 Ry

     total magnetization       =    36.63 Bohr mag/cell
     absolute magnetization    =    37.49 Bohr mag/cell

     iteration #  8     ecut=    44.10 Ry     beta=0.10
     Davidson diagonalization with overlap
     ethr =  3.37E-04,  avg # of iterations =  2.4

     negative rho (up, down):  3.745E-04 3.707E-04
 
     Adding external electric field

     Computed dipole along edir(3) : 
        Dipole               -0.2077 Ry au,         -0.5279 Debye
        Dipole field         -0.0004 Ry au
 
        Potential amp.        0.0289 Ry
        Total length         38.9923 bohr
 
 
     Adding external electric field

     Computed dipole along edir(3) : 
        Dipole               -0.2077 Ry au,         -0.5279 Debye
        Dipole field         -0.0004 Ry au
 
        Potential amp.        0.0289 Ry
        Total length         38.9923 bohr
 
 
     Magnetic moment per site:
     atom:    1    charge:    3.9654    magn:    0.6260    constr:    0.0000
     atom:    2    charge:    3.9651    magn:    0.6327    constr:    0.0000
     atom:    3    charge:    3.9655    magn:    0.6245    constr:    0.0000
     atom:    4    charge:    3.9530    magn:    0.6927    constr:    0.0000
     atom:    5    charge:    3.9654    magn:    0.6260    constr:    0.0000
     atom:    6    charge:    3.9652    magn:    0.6327    constr:    0.0000
     atom:    7    charge:    3.9674    magn:    0.6291    constr:    0.0000
     atom:    8    charge:    3.9705    magn:    0.6310    constr:    0.0000
     atom:    9    charge:    3.9637    magn:    0.6266    constr:    0.0000
     atom:   10    charge:    3.9644    magn:    0.6308    constr:    0.0000
     atom:   11    charge:    3.9674    magn:    0.6291    constr:    0.0000
     atom:   12    charge:    3.9705    magn:    0.6310    constr:    0.0000
     atom:   13    charge:    3.9655    magn:    0.6260    constr:    0.0000
     atom:   14    charge:    3.9668    magn:    0.6283    constr:    0.0000
     atom:   15    charge:    3.9655    magn:    0.6244    constr:    0.0000
     atom:   16    charge:    3.9705    magn:    0.6310    constr:    0.0000
     atom:   17    charge:    3.9664    magn:    0.6252    constr:    0.0000
     atom:   18    charge:    3.9652    magn:    0.6327    constr:    0.0000
     atom:   19    charge:    3.9655    magn:    0.6244    constr:    0.0000
     atom:   20    charge:    3.9705    magn:    0.6310    constr:    0.0000
     atom:   21    charge:    3.9655    magn:    0.6260    constr:    0.0000
     atom:   22    charge:    3.9668    magn:    0.6283    constr:    0.0000
     atom:   23    charge:    3.9695    magn:    0.6330    constr:    0.0000
     atom:   24    charge:    3.9730    magn:    0.6191    constr:    0.0000
     atom:   25    charge:    3.9656    magn:    0.6259    constr:    0.0000
     atom:   26    charge:    3.9668    magn:    0.6283    constr:    0.0000
     atom:   27    charge:    3.9695    magn:    0.6330    constr:    0.0000
     atom:   28    charge:    3.9705    magn:    0.6310    constr:    0.0000
     atom:   29    charge:    3.9655    magn:    0.6260    constr:    0.0000
     atom:   30    charge:    3.9644    magn:    0.6308    constr:    0.0000
     atom:   31    charge:    3.9674    magn:    0.6291    constr:    0.0000
     atom:   32    charge:    3.9678    magn:    0.6236    constr:    0.0000
     atom:   33    charge:    3.9654    magn:    0.6260    constr:    0.0000
     atom:   34    charge:    3.9644    magn:    0.6308    constr:    0.0000
     atom:   35    charge:    3.9695    magn:    0.6330    constr:    0.0000
     atom:   36    charge:    3.9705    magn:    0.6311    constr:    0.0000
     atom:   37    charge:    2.0480    magn:    0.5390    constr:    0.0000

     total cpu time spent up to now is      700.1 secs

     total energy              =   -3656.31980438 Ry
     Harris-Foulkes estimate   =   -3656.12443781 Ry
     estimated scf accuracy    <       0.92312730 Ry

     total magnetization       =    33.75 Bohr mag/cell
     absolute magnetization    =    35.32 Bohr mag/cell

     iteration #  9     ecut=    44.10 Ry     beta=0.10
     Davidson diagonalization with overlap
     ethr =  2.52E-04,  avg # of iterations =  4.7

     negative rho (up, down):  4.188E-04 4.839E-04
 
     Adding external electric field

     Computed dipole along edir(3) : 
        Dipole               -0.2284 Ry au,         -0.5806 Debye
        Dipole field         -0.0004 Ry au
 
        Potential amp.        0.0318 Ry
        Total length         38.9923 bohr
 
 
     Adding external electric field

     Computed dipole along edir(3) : 
        Dipole               -0.2284 Ry au,         -0.5806 Debye
        Dipole field         -0.0004 Ry au
 
        Potential amp.        0.0318 Ry
        Total length         38.9923 bohr
 
 
     Magnetic moment per site:
     atom:    1    charge:    3.9653    magn:    0.5138    constr:    0.0000
     atom:    2    charge:    3.9689    magn:    0.5200    constr:    0.0000
     atom:    3    charge:    3.9688    magn:    0.5096    constr:    0.0000
     atom:    4    charge:    3.9465    magn:    0.5935    constr:    0.0000
     atom:    5    charge:    3.9653    magn:    0.5139    constr:    0.0000
     atom:    6    charge:    3.9689    magn:    0.5200    constr:    0.0000
     atom:    7    charge:    3.9699    magn:    0.5159    constr:    0.0000
     atom:    8    charge:    3.9725    magn:    0.5183    constr:    0.0000
     atom:    9    charge:    3.9652    magn:    0.5135    constr:    0.0000
     atom:   10    charge:    3.9688    magn:    0.5169    constr:    0.0000
     atom:   11    charge:    3.9699    magn:    0.5159    constr:    0.0000
     atom:   12    charge:    3.9725    magn:    0.5182    constr:    0.0000
     atom:   13    charge:    3.9653    magn:    0.5139    constr:    0.0000
     atom:   14    charge:    3.9696    magn:    0.5148    constr:    0.0000
     atom:   15    charge:    3.9688    magn:    0.5096    constr:    0.0000
     atom:   16    charge:    3.9725    magn:    0.5183    constr:    0.0000
     atom:   17    charge:    3.9642    magn:    0.5143    constr:    0.0000
     atom:   18    charge:    3.9689    magn:    0.5200    constr:    0.0000
     atom:   19    charge:    3.9688    magn:    0.5096    constr:    0.0000
     atom:   20    charge:    3.9725    magn:    0.5183    constr:    0.0000
     atom:   21    charge:    3.9653    magn:    0.5138    constr:    0.0000
     atom:   22    charge:    3.9696    magn:    0.5148    constr:    0.0000
     atom:   23    charge:    3.9681    magn:    0.5237    constr:    0.0000
     atom:   24    charge:    3.9660    magn:    0.5109    constr:    0.0000
     atom:   25    charge:    3.9661    magn:    0.5138    constr:    0.0000
     atom:   26    charge:    3.9696    magn:    0.5148    constr:    0.0000
     atom:   27    charge:    3.9681    magn:    0.5237    constr:    0.0000
     atom:   28    charge:    3.9725    magn:    0.5182    constr:    0.0000
     atom:   29    charge:    3.9653    magn:    0.5139    constr:    0.0000
     atom:   30    charge:    3.9687    magn:    0.5169    constr:    0.0000
     atom:   31    charge:    3.9699    magn:    0.5159    constr:    0.0000
     atom:   32    charge:    3.9685    magn:    0.5095    constr:    0.0000
     atom:   33    charge:    3.9653    magn:    0.5138    constr:    0.0000
     atom:   34    charge:    3.9687    magn:    0.5169    constr:    0.0000
     atom:   35    charge:    3.9681    magn:    0.5237    constr:    0.0000
     atom:   36    charge:    3.9725    magn:    0.5183    constr:    0.0000
     atom:   37    charge:    2.0413    magn:    0.4422    constr:    0.0000

     total cpu time spent up to now is      784.3 secs

     total energy              =   -3656.44221847 Ry
     Harris-Foulkes estimate   =   -3656.37065107 Ry
     estimated scf accuracy    <       0.58426802 Ry

     total magnetization       =    29.79 Bohr mag/cell
     absolute magnetization    =    32.64 Bohr mag/cell

     iteration # 10     ecut=    44.10 Ry     beta=0.10
     Davidson diagonalization with overlap
     ethr =  1.60E-04,  avg # of iterations =  4.3

     negative rho (up, down):  4.232E-04 4.993E-04
 
     Adding external electric field

     Computed dipole along edir(3) : 
        Dipole               -0.2880 Ry au,         -0.7320 Debye
        Dipole field         -0.0005 Ry au
 
        Potential amp.        0.0401 Ry
        Total length         38.9923 bohr
 
 
     Adding external electric field

     Computed dipole along edir(3) : 
        Dipole               -0.2880 Ry au,         -0.7320 Debye
        Dipole field         -0.0005 Ry au
 
        Potential amp.        0.0401 Ry
        Total length         38.9923 bohr
 
 
     Magnetic moment per site:
     atom:    1    charge:    3.9663    magn:    0.4666    constr:    0.0000
     atom:    2    charge:    3.9708    magn:    0.4728    constr:    0.0000
     atom:    3    charge:    3.9696    magn:    0.4622    constr:    0.0000
     atom:    4    charge:    3.9471    magn:    0.5499    constr:    0.0000
     atom:    5    charge:    3.9663    magn:    0.4666    constr:    0.0000
     atom:    6    charge:    3.9708    magn:    0.4728    constr:    0.0000
     atom:    7    charge:    3.9690    magn:    0.4698    constr:    0.0000
     atom:    8    charge:    3.9727    magn:    0.4719    constr:    0.0000
     atom:    9    charge:    3.9673    magn:    0.4655    constr:    0.0000
     atom:   10    charge:    3.9711    magn:    0.4691    constr:    0.0000
     atom:   11    charge:    3.9690    magn:    0.4698    constr:    0.0000
     atom:   12    charge:    3.9727    magn:    0.4719    constr:    0.0000
     atom:   13    charge:    3.9663    magn:    0.4666    constr:    0.0000
     atom:   14    charge:    3.9705    magn:    0.4675    constr:    0.0000
     atom:   15    charge:    3.9696    magn:    0.4622    constr:    0.0000
     atom:   16    charge:    3.9727    magn:    0.4719    constr:    0.0000
     atom:   17    charge:    3.9675    magn:    0.4654    constr:    0.0000
     atom:   18    charge:    3.9708    magn:    0.4728    constr:    0.0000
     atom:   19    charge:    3.9696    magn:    0.4622    constr:    0.0000
     atom:   20    charge:    3.9727    magn:    0.4719    constr:    0.0000
     atom:   21    charge:    3.9663    magn:    0.4666    constr:    0.0000
     atom:   22    charge:    3.9704    magn:    0.4675    constr:    0.0000
     atom:   23    charge:    3.9700    magn:    0.4763    constr:    0.0000
     atom:   24    charge:    3.9688    magn:    0.4628    constr:    0.0000
     atom:   25    charge:    3.9658    magn:    0.4678    constr:    0.0000
     atom:   26    charge:    3.9705    magn:    0.4675    constr:    0.0000
     atom:   27    charge:    3.9700    magn:    0.4763    constr:    0.0000
     atom:   28    charge:    3.9727    magn:    0.4719    constr:    0.0000
     atom:   29    charge:    3.9663    magn:    0.4666    constr:    0.0000
     atom:   30    charge:    3.9711    magn:    0.4691    constr:    0.0000
     atom:   31    charge:    3.9690    magn:    0.4698    constr:    0.0000
     atom:   32    charge:    3.9659    magn:    0.4645    constr:    0.0000
     atom:   33    charge:    3.9663    magn:    0.4666    constr:    0.0000
     atom:   34    charge:    3.9711    magn:    0.4691    constr:    0.0000
     atom:   35    charge:    3.9700    magn:    0.4763    constr:    0.0000
     atom:   36    charge:    3.9727    magn:    0.4719    constr:    0.0000
     atom:   37    charge:    2.0350    magn:    0.3999    constr:    0.0000

     total cpu time spent up to now is      865.5 secs

     total energy              =   -3656.48399155 Ry
     Harris-Foulkes estimate   =   -3656.47591048 Ry
     estimated scf accuracy    <       0.30709096 Ry

     total magnetization       =    26.16 Bohr mag/cell
     absolute magnetization    =    30.25 Bohr mag/cell

     iteration # 11     ecut=    44.10 Ry     beta=0.10
     Davidson diagonalization with overlap
     ethr =  8.39E-05,  avg # of iterations =  1.8

     negative rho (up, down):  4.301E-04 5.168E-04
 
     Adding external electric field

     Computed dipole along edir(3) : 
        Dipole               -0.3601 Ry au,         -0.9153 Debye
        Dipole field         -0.0006 Ry au
 
        Potential amp.        0.0501 Ry
        Total length         38.9923 bohr
 
 
     Adding external electric field

     Computed dipole along edir(3) : 
        Dipole               -0.3601 Ry au,         -0.9153 Debye
        Dipole field         -0.0006 Ry au
 
        Potential amp.        0.0501 Ry
        Total length         38.9923 bohr
 
 
     Magnetic moment per site:
     atom:    1    charge:    3.9685    magn:    0.4121    constr:    0.0000
     atom:    2    charge:    3.9716    magn:    0.4198    constr:    0.0000
     atom:    3    charge:    3.9707    magn:    0.4082    constr:    0.0000
     atom:    4    charge:    3.9499    magn:    0.4982    constr:    0.0000
     atom:    5    charge:    3.9685    magn:    0.4121    constr:    0.0000
     atom:    6    charge:    3.9717    magn:    0.4198    constr:    0.0000
     atom:    7    charge:    3.9716    magn:    0.4147    constr:    0.0000
     atom:    8    charge:    3.9720    magn:    0.4198    constr:    0.0000
     atom:    9    charge:    3.9685    magn:    0.4117    constr:    0.0000
     atom:   10    charge:    3.9723    magn:    0.4153    constr:    0.0000
     atom:   11    charge:    3.9716    magn:    0.4147    constr:    0.0000
     atom:   12    charge:    3.9721    magn:    0.4198    constr:    0.0000
     atom:   13    charge:    3.9685    magn:    0.4121    constr:    0.0000
     atom:   14    charge:    3.9720    magn:    0.4130    constr:    0.0000
     atom:   15    charge:    3.9707    magn:    0.4082    constr:    0.0000
     atom:   16    charge:    3.9721    magn:    0.4198    constr:    0.0000
     atom:   17    charge:    3.9682    magn:    0.4117    constr:    0.0000
     atom:   18    charge:    3.9716    magn:    0.4198    constr:    0.0000
     atom:   19    charge:    3.9707    magn:    0.4082    constr:    0.0000
     atom:   20    charge:    3.9721    magn:    0.4198    constr:    0.0000
     atom:   21    charge:    3.9685    magn:    0.4121    constr:    0.0000
     atom:   22    charge:    3.9720    magn:    0.4130    constr:    0.0000
     atom:   23    charge:    3.9716    magn:    0.4225    constr:    0.0000
     atom:   24    charge:    3.9672    magn:    0.4120    constr:    0.0000
     atom:   25    charge:    3.9696    magn:    0.4132    constr:    0.0000
     atom:   26    charge:    3.9720    magn:    0.4130    constr:    0.0000
     atom:   27    charge:    3.9716    magn:    0.4225    constr:    0.0000
     atom:   28    charge:    3.9720    magn:    0.4198    constr:    0.0000
     atom:   29    charge:    3.9685    magn:    0.4121    constr:    0.0000
     atom:   30    charge:    3.9723    magn:    0.4154    constr:    0.0000
     atom:   31    charge:    3.9716    magn:    0.4147    constr:    0.0000
     atom:   32    charge:    3.9679    magn:    0.4101    constr:    0.0000
     atom:   33    charge:    3.9685    magn:    0.4121    constr:    0.0000
     atom:   34    charge:    3.9723    magn:    0.4153    constr:    0.0000
     atom:   35    charge:    3.9716    magn:    0.4225    constr:    0.0000
     atom:   36    charge:    3.9721    magn:    0.4198    constr:    0.0000
     atom:   37    charge:    2.0256    magn:    0.3495    constr:    0.0000

     total cpu time spent up to now is      936.6 secs

     total energy              =   -3656.48467628 Ry
     Harris-Foulkes estimate   =   -3656.49219182 Ry
     estimated scf accuracy    <       0.14854339 Ry

     total magnetization       =    24.65 Bohr mag/cell
     absolute magnetization    =    29.22 Bohr mag/cell

     iteration # 12     ecut=    44.10 Ry     beta=0.10
     Davidson diagonalization with overlap
     ethr =  4.06E-05,  avg # of iterations =  3.1

     negative rho (up, down):  4.023E-04 4.551E-04
 
     Adding external electric field

     Computed dipole along edir(3) : 
        Dipole               -0.3651 Ry au,         -0.9280 Debye
        Dipole field         -0.0007 Ry au
 
        Potential amp.        0.0508 Ry
        Total length         38.9923 bohr
 
 
     Adding external electric field

     Computed dipole along edir(3) : 
        Dipole               -0.3651 Ry au,         -0.9280 Debye
        Dipole field         -0.0007 Ry au
 
        Potential amp.        0.0508 Ry
        Total length         38.9923 bohr
 
 
     Magnetic moment per site:
     atom:    1    charge:    3.9694    magn:    0.4125    constr:    0.0000
     atom:    2    charge:    3.9727    magn:    0.4197    constr:    0.0000
     atom:    3    charge:    3.9713    magn:    0.4087    constr:    0.0000
     atom:    4    charge:    3.9505    magn:    0.4947    constr:    0.0000
     atom:    5    charge:    3.9694    magn:    0.4125    constr:    0.0000
     atom:    6    charge:    3.9727    magn:    0.4197    constr:    0.0000
     atom:    7    charge:    3.9726    magn:    0.4141    constr:    0.0000
     atom:    8    charge:    3.9724    magn:    0.4208    constr:    0.0000
     atom:    9    charge:    3.9692    magn:    0.4120    constr:    0.0000
     atom:   10    charge:    3.9710    magn:    0.4168    constr:    0.0000
     atom:   11    charge:    3.9726    magn:    0.4141    constr:    0.0000
     atom:   12    charge:    3.9724    magn:    0.4208    constr:    0.0000
     atom:   13    charge:    3.9694    magn:    0.4125    constr:    0.0000
     atom:   14    charge:    3.9726    magn:    0.4130    constr:    0.0000
     atom:   15    charge:    3.9713    magn:    0.4087    constr:    0.0000
     atom:   16    charge:    3.9724    magn:    0.4208    constr:    0.0000
     atom:   17    charge:    3.9695    magn:    0.4118    constr:    0.0000
     atom:   18    charge:    3.9727    magn:    0.4197    constr:    0.0000
     atom:   19    charge:    3.9713    magn:    0.4087    constr:    0.0000
     atom:   20    charge:    3.9724    magn:    0.4208    constr:    0.0000
     atom:   21    charge:    3.9694    magn:    0.4125    constr:    0.0000
     atom:   22    charge:    3.9726    magn:    0.4130    constr:    0.0000
     atom:   23    charge:    3.9710    magn:    0.4227    constr:    0.0000
     atom:   24    charge:    3.9683    magn:    0.4143    constr:    0.0000
     atom:   25    charge:    3.9685    magn:    0.4155    constr:    0.0000
     atom:   26    charge:    3.9726    magn:    0.4130    constr:    0.0000
     atom:   27    charge:    3.9710    magn:    0.4227    constr:    0.0000
     atom:   28    charge:    3.9724    magn:    0.4208    constr:    0.0000
     atom:   29    charge:    3.9694    magn:    0.4125    constr:    0.0000
     atom:   30    charge:    3.9710    magn:    0.4167    constr:    0.0000
     atom:   31    charge:    3.9726    magn:    0.4141    constr:    0.0000
     atom:   32    charge:    3.9668    magn:    0.4132    constr:    0.0000
     atom:   33    charge:    3.9694    magn:    0.4125    constr:    0.0000
     atom:   34    charge:    3.9710    magn:    0.4168    constr:    0.0000
     atom:   35    charge:    3.9710    magn:    0.4227    constr:    0.0000
     atom:   36    charge:    3.9724    magn:    0.4208    constr:    0.0000
     atom:   37    charge:    2.0215    magn:    0.3441    constr:    0.0000

     total cpu time spent up to now is     1012.6 secs

     total energy              =   -3656.48695332 Ry
     Harris-Foulkes estimate   =   -3656.49193640 Ry
     estimated scf accuracy    <       0.05698209 Ry

     total magnetization       =    23.16 Bohr mag/cell
     absolute magnetization    =    28.13 Bohr mag/cell

     iteration # 13     ecut=    44.10 Ry     beta=0.10
     Davidson diagonalization with overlap
     ethr =  1.56E-05,  avg # of iterations =  4.7

     negative rho (up, down):  3.888E-04 4.313E-04
 
     Adding external electric field

     Computed dipole along edir(3) : 
        Dipole               -0.3751 Ry au,         -0.9535 Debye
        Dipole field         -0.0007 Ry au
 
        Potential amp.        0.0522 Ry
        Total length         38.9923 bohr
 
 
     Adding external electric field

     Computed dipole along edir(3) : 
        Dipole               -0.3751 Ry au,         -0.9535 Debye
        Dipole field         -0.0007 Ry au
 
        Potential amp.        0.0522 Ry
        Total length         38.9923 bohr
 
 
     Magnetic moment per site:
     atom:    1    charge:    3.9701    magn:    0.4012    constr:    0.0000
     atom:    2    charge:    3.9718    magn:    0.4093    constr:    0.0000
     atom:    3    charge:    3.9708    magn:    0.3979    constr:    0.0000
     atom:    4    charge:    3.9500    magn:    0.4839    constr:    0.0000
     atom:    5    charge:    3.9701    magn:    0.4012    constr:    0.0000
     atom:    6    charge:    3.9718    magn:    0.4093    constr:    0.0000
     atom:    7    charge:    3.9720    magn:    0.4030    constr:    0.0000
     atom:    8    charge:    3.9730    magn:    0.4100    constr:    0.0000
     atom:    9    charge:    3.9708    magn:    0.4001    constr:    0.0000
     atom:   10    charge:    3.9727    magn:    0.4047    constr:    0.0000
     atom:   11    charge:    3.9720    magn:    0.4030    constr:    0.0000
     atom:   12    charge:    3.9730    magn:    0.4100    constr:    0.0000
     atom:   13    charge:    3.9701    magn:    0.4012    constr:    0.0000
     atom:   14    charge:    3.9723    magn:    0.4019    constr:    0.0000
     atom:   15    charge:    3.9708    magn:    0.3979    constr:    0.0000
     atom:   16    charge:    3.9730    magn:    0.4100    constr:    0.0000
     atom:   17    charge:    3.9698    magn:    0.4008    constr:    0.0000
     atom:   18    charge:    3.9718    magn:    0.4093    constr:    0.0000
     atom:   19    charge:    3.9708    magn:    0.3979    constr:    0.0000
     atom:   20    charge:    3.9730    magn:    0.4100    constr:    0.0000
     atom:   21    charge:    3.9701    magn:    0.4012    constr:    0.0000
     atom:   22    charge:    3.9723    magn:    0.4019    constr:    0.0000
     atom:   23    charge:    3.9721    magn:    0.4108    constr:    0.0000
     atom:   24    charge:    3.9696    magn:    0.4035    constr:    0.0000
     atom:   25    charge:    3.9707    magn:    0.4037    constr:    0.0000
     atom:   26    charge:    3.9723    magn:    0.4019    constr:    0.0000
     atom:   27    charge:    3.9721    magn:    0.4109    constr:    0.0000
     atom:   28    charge:    3.9730    magn:    0.4100    constr:    0.0000
     atom:   29    charge:    3.9701    magn:    0.4012    constr:    0.0000
     atom:   30    charge:    3.9727    magn:    0.4047    constr:    0.0000
     atom:   31    charge:    3.9720    magn:    0.4030    constr:    0.0000
     atom:   32    charge:    3.9693    magn:    0.4013    constr:    0.0000
     atom:   33    charge:    3.9701    magn:    0.4012    constr:    0.0000
     atom:   34    charge:    3.9727    magn:    0.4047    constr:    0.0000
     atom:   35    charge:    3.9721    magn:    0.4108    constr:    0.0000
     atom:   36    charge:    3.9730    magn:    0.4100    constr:    0.0000
     atom:   37    charge:    2.0196    magn:    0.3327    constr:    0.0000

     total cpu time spent up to now is     1096.7 secs

     total energy              =   -3656.48694539 Ry
     Harris-Foulkes estimate   =   -3656.49083826 Ry
     estimated scf accuracy    <       0.05807832 Ry

     total magnetization       =    23.19 Bohr mag/cell
     absolute magnetization    =    28.05 Bohr mag/cell

     iteration # 14     ecut=    44.10 Ry     beta=0.10
     Davidson diagonalization with overlap
     ethr =  1.56E-05,  avg # of iterations =  1.0

     negative rho (up, down):  3.699E-04 3.885E-04
 
     Adding external electric field

     Computed dipole along edir(3) : 
        Dipole               -0.3662 Ry au,         -0.9309 Debye
        Dipole field         -0.0007 Ry au
 
        Potential amp.        0.0509 Ry
        Total length         38.9923 bohr
 
 
     Adding external electric field

     Computed dipole along edir(3) : 
        Dipole               -0.3662 Ry au,         -0.9309 Debye
        Dipole field         -0.0007 Ry au
 
        Potential amp.        0.0509 Ry
        Total length         38.9923 bohr
 
 
     Magnetic moment per site:
     atom:    1    charge:    3.9705    magn:    0.4024    constr:    0.0000
     atom:    2    charge:    3.9716    magn:    0.4104    constr:    0.0000
     atom:    3    charge:    3.9709    magn:    0.3993    constr:    0.0000
     atom:    4    charge:    3.9512    magn:    0.4818    constr:    0.0000
     atom:    5    charge:    3.9705    magn:    0.4024    constr:    0.0000
     atom:    6    charge:    3.9716    magn:    0.4104    constr:    0.0000
     atom:    7    charge:    3.9714    magn:    0.4039    constr:    0.0000
     atom:    8    charge:    3.9734    magn:    0.4116    constr:    0.0000
     atom:    9    charge:    3.9703    magn:    0.4016    constr:    0.0000
     atom:   10    charge:    3.9715    magn:    0.4065    constr:    0.0000
     atom:   11    charge:    3.9714    magn:    0.4039    constr:    0.0000
     atom:   12    charge:    3.9734    magn:    0.4116    constr:    0.0000
     atom:   13    charge:    3.9705    magn:    0.4024    constr:    0.0000
     atom:   14    charge:    3.9714    magn:    0.4034    constr:    0.0000
     atom:   15    charge:    3.9709    magn:    0.3992    constr:    0.0000
     atom:   16    charge:    3.9734    magn:    0.4116    constr:    0.0000
     atom:   17    charge:    3.9710    magn:    0.4014    constr:    0.0000
     atom:   18    charge:    3.9716    magn:    0.4104    constr:    0.0000
     atom:   19    charge:    3.9709    magn:    0.3993    constr:    0.0000
     atom:   20    charge:    3.9734    magn:    0.4116    constr:    0.0000
     atom:   21    charge:    3.9705    magn:    0.4024    constr:    0.0000
     atom:   22    charge:    3.9714    magn:    0.4034    constr:    0.0000
     atom:   23    charge:    3.9713    magn:    0.4118    constr:    0.0000
     atom:   24    charge:    3.9700    magn:    0.4064    constr:    0.0000
     atom:   25    charge:    3.9710    magn:    0.4055    constr:    0.0000
     atom:   26    charge:    3.9714    magn:    0.4034    constr:    0.0000
     atom:   27    charge:    3.9713    magn:    0.4118    constr:    0.0000
     atom:   28    charge:    3.9734    magn:    0.4116    constr:    0.0000
     atom:   29    charge:    3.9705    magn:    0.4024    constr:    0.0000
     atom:   30    charge:    3.9715    magn:    0.4065    constr:    0.0000
     atom:   31    charge:    3.9714    magn:    0.4039    constr:    0.0000
     atom:   32    charge:    3.9703    magn:    0.4033    constr:    0.0000
     atom:   33    charge:    3.9705    magn:    0.4024    constr:    0.0000
     atom:   34    charge:    3.9715    magn:    0.4065    constr:    0.0000
     atom:   35    charge:    3.9713    magn:    0.4118    constr:    0.0000
     atom:   36    charge:    3.9734    magn:    0.4116    constr:    0.0000
     atom:   37    charge:    2.0182    magn:    0.3295    constr:    0.0000

     total cpu time spent up to now is     1164.4 secs

     total energy              =   -3656.48870265 Ry
     Harris-Foulkes estimate   =   -3656.48937478 Ry
     estimated scf accuracy    <       0.02824829 Ry

     total magnetization       =    22.98 Bohr mag/cell
     absolute magnetization    =    27.88 Bohr mag/cell

     iteration # 15     ecut=    44.10 Ry     beta=0.10
     Davidson diagonalization with overlap
     ethr =  7.72E-06,  avg # of iterations =  2.0

     negative rho (up, down):  3.568E-04 3.578E-04
 
     Adding external electric field

     Computed dipole along edir(3) : 
        Dipole               -0.3622 Ry au,         -0.9205 Debye
        Dipole field         -0.0006 Ry au
 
        Potential amp.        0.0504 Ry
        Total length         38.9923 bohr
 
 
     Adding external electric field

     Computed dipole along edir(3) : 
        Dipole               -0.3622 Ry au,         -0.9205 Debye
        Dipole field         -0.0006 Ry au
 
        Potential amp.        0.0504 Ry
        Total length         38.9923 bohr
 
 
     Magnetic moment per site:
     atom:    1    charge:    3.9711    magn:    0.3994    constr:    0.0000
     atom:    2    charge:    3.9710    magn:    0.4081    constr:    0.0000
     atom:    3    charge:    3.9700    magn:    0.3973    constr:    0.0000
     atom:    4    charge:    3.9517    magn:    0.4768    constr:    0.0000
     atom:    5    charge:    3.9711    magn:    0.3994    constr:    0.0000
     atom:    6    charge:    3.9710    magn:    0.4081    constr:    0.0000
     atom:    7    charge:    3.9713    magn:    0.4008    constr:    0.0000
     atom:    8    charge:    3.9742    magn:    0.4091    constr:    0.0000
     atom:    9    charge:    3.9715    magn:    0.3981    constr:    0.0000
     atom:   10    charge:    3.9709    magn:    0.4043    constr:    0.0000
     atom:   11    charge:    3.9713    magn:    0.4008    constr:    0.0000
     atom:   12    charge:    3.9742    magn:    0.4091    constr:    0.0000
     atom:   13    charge:    3.9711    magn:    0.3994    constr:    0.0000
     atom:   14    charge:    3.9712    magn:    0.4008    constr:    0.0000
     atom:   15    charge:    3.9700    magn:    0.3973    constr:    0.0000
     atom:   16    charge:    3.9742    magn:    0.4091    constr:    0.0000
     atom:   17    charge:    3.9705    magn:    0.3992    constr:    0.0000
     atom:   18    charge:    3.9710    magn:    0.4081    constr:    0.0000
     atom:   19    charge:    3.9700    magn:    0.3973    constr:    0.0000
     atom:   20    charge:    3.9742    magn:    0.4091    constr:    0.0000
     atom:   21    charge:    3.9711    magn:    0.3994    constr:    0.0000
     atom:   22    charge:    3.9712    magn:    0.4008    constr:    0.0000
     atom:   23    charge:    3.9706    magn:    0.4090    constr:    0.0000
     atom:   24    charge:    3.9714    magn:    0.4045    constr:    0.0000
     atom:   25    charge:    3.9710    magn:    0.4035    constr:    0.0000
     atom:   26    charge:    3.9712    magn:    0.4008    constr:    0.0000
     atom:   27    charge:    3.9706    magn:    0.4090    constr:    0.0000
     atom:   28    charge:    3.9742    magn:    0.4091    constr:    0.0000
     atom:   29    charge:    3.9711    magn:    0.3994    constr:    0.0000
     atom:   30    charge:    3.9709    magn:    0.4043    constr:    0.0000
     atom:   31    charge:    3.9713    magn:    0.4008    constr:    0.0000
     atom:   32    charge:    3.9706    magn:    0.4016    constr:    0.0000
     atom:   33    charge:    3.9711    magn:    0.3994    constr:    0.0000
     atom:   34    charge:    3.9709    magn:    0.4043    constr:    0.0000
     atom:   35    charge:    3.9706    magn:    0.4090    constr:    0.0000
     atom:   36    charge:    3.9742    magn:    0.4091    constr:    0.0000
     atom:   37    charge:    2.0177    magn:    0.3237    constr:    0.0000

     total cpu time spent up to now is     1235.8 secs

     total energy              =   -3656.48958343 Ry
     Harris-Foulkes estimate   =   -3656.48960462 Ry
     estimated scf accuracy    <       0.01437082 Ry

     total magnetization       =    23.03 Bohr mag/cell
     absolute magnetization    =    27.83 Bohr mag/cell

     iteration # 16     ecut=    44.10 Ry     beta=0.10
     Davidson diagonalization with overlap
     ethr =  3.93E-06,  avg # of iterations =  3.6

     negative rho (up, down):  3.447E-04 3.370E-04
 
     Adding external electric field

     Computed dipole along edir(3) : 
        Dipole               -0.3802 Ry au,         -0.9663 Debye
        Dipole field         -0.0007 Ry au
 
        Potential amp.        0.0529 Ry
        Total length         38.9923 bohr
 
 
     Adding external electric field

     Computed dipole along edir(3) : 
        Dipole               -0.3802 Ry au,         -0.9663 Debye
        Dipole field         -0.0007 Ry au
 
        Potential amp.        0.0529 Ry
        Total length         38.9923 bohr
 
 
     Magnetic moment per site:
     atom:    1    charge:    3.9712    magn:    0.3993    constr:    0.0000
     atom:    2    charge:    3.9711    magn:    0.4079    constr:    0.0000
     atom:    3    charge:    3.9705    magn:    0.3969    constr:    0.0000
     atom:    4    charge:    3.9510    magn:    0.4768    constr:    0.0000
     atom:    5    charge:    3.9712    magn:    0.3993    constr:    0.0000
     atom:    6    charge:    3.9711    magn:    0.4079    constr:    0.0000
     atom:    7    charge:    3.9714    magn:    0.4005    constr:    0.0000
     atom:    8    charge:    3.9742    magn:    0.4089    constr:    0.0000
     atom:    9    charge:    3.9712    magn:    0.3981    constr:    0.0000
     atom:   10    charge:    3.9710    magn:    0.4041    constr:    0.0000
     atom:   11    charge:    3.9714    magn:    0.4005    constr:    0.0000
     atom:   12    charge:    3.9742    magn:    0.4089    constr:    0.0000
     atom:   13    charge:    3.9712    magn:    0.3993    constr:    0.0000
     atom:   14    charge:    3.9711    magn:    0.4007    constr:    0.0000
     atom:   15    charge:    3.9705    magn:    0.3969    constr:    0.0000
     atom:   16    charge:    3.9742    magn:    0.4089    constr:    0.0000
     atom:   17    charge:    3.9712    magn:    0.3986    constr:    0.0000
     atom:   18    charge:    3.9711    magn:    0.4079    constr:    0.0000
     atom:   19    charge:    3.9705    magn:    0.3969    constr:    0.0000
     atom:   20    charge:    3.9742    magn:    0.4089    constr:    0.0000
     atom:   21    charge:    3.9712    magn:    0.3993    constr:    0.0000
     atom:   22    charge:    3.9711    magn:    0.4007    constr:    0.0000
     atom:   23    charge:    3.9709    magn:    0.4086    constr:    0.0000
     atom:   24    charge:    3.9712    magn:    0.4045    constr:    0.0000
     atom:   25    charge:    3.9711    magn:    0.4034    constr:    0.0000
     atom:   26    charge:    3.9711    magn:    0.4007    constr:    0.0000
     atom:   27    charge:    3.9709    magn:    0.4086    constr:    0.0000
     atom:   28    charge:    3.9742    magn:    0.4089    constr:    0.0000
     atom:   29    charge:    3.9712    magn:    0.3993    constr:    0.0000
     atom:   30    charge:    3.9710    magn:    0.4041    constr:    0.0000
     atom:   31    charge:    3.9714    magn:    0.4005    constr:    0.0000
     atom:   32    charge:    3.9710    magn:    0.4012    constr:    0.0000
     atom:   33    charge:    3.9712    magn:    0.3993    constr:    0.0000
     atom:   34    charge:    3.9710    magn:    0.4041    constr:    0.0000
     atom:   35    charge:    3.9709    magn:    0.4086    constr:    0.0000
     atom:   36    charge:    3.9742    magn:    0.4089    constr:    0.0000
     atom:   37    charge:    2.0170    magn:    0.3233    constr:    0.0000

     total cpu time spent up to now is     1314.5 secs

     total energy              =   -3656.48944910 Ry
     Harris-Foulkes estimate   =   -3656.49000831 Ry
     estimated scf accuracy    <       0.02317678 Ry

     total magnetization       =    23.00 Bohr mag/cell
     absolute magnetization    =    27.74 Bohr mag/cell

     iteration # 17     ecut=    44.10 Ry     beta=0.10
     Davidson diagonalization with overlap
     ethr =  3.93E-06,  avg # of iterations =  1.4

     negative rho (up, down):  3.371E-04 3.086E-04
 
     Adding external electric field

     Computed dipole along edir(3) : 
        Dipole               -0.3671 Ry au,         -0.9332 Debye
        Dipole field         -0.0007 Ry au
 
        Potential amp.        0.0511 Ry
        Total length         38.9923 bohr
 
 
     Adding external electric field

     Computed dipole along edir(3) : 
        Dipole               -0.3671 Ry au,         -0.9332 Debye
        Dipole field         -0.0007 Ry au
 
        Potential amp.        0.0511 Ry
        Total length         38.9923 bohr
 
 
     Magnetic moment per site:
     atom:    1    charge:    3.9714    magn:    0.3942    constr:    0.0000
     atom:    2    charge:    3.9702    magn:    0.4034    constr:    0.0000
     atom:    3    charge:    3.9694    magn:    0.3929    constr:    0.0000
     atom:    4    charge:    3.9521    magn:    0.4668    constr:    0.0000
     atom:    5    charge:    3.9714    magn:    0.3942    constr:    0.0000
     atom:    6    charge:    3.9702    magn:    0.4034    constr:    0.0000
     atom:    7    charge:    3.9702    magn:    0.3952    constr:    0.0000
     atom:    8    charge:    3.9750    magn:    0.4044    constr:    0.0000
     atom:    9    charge:    3.9714    magn:    0.3927    constr:    0.0000
     atom:   10    charge:    3.9702    magn:    0.3997    constr:    0.0000
     atom:   11    charge:    3.9702    magn:    0.3952    constr:    0.0000
     atom:   12    charge:    3.9750    magn:    0.4044    constr:    0.0000
     atom:   13    charge:    3.9714    magn:    0.3942    constr:    0.0000
     atom:   14    charge:    3.9704    magn:    0.3960    constr:    0.0000
     atom:   15    charge:    3.9694    magn:    0.3929    constr:    0.0000
     atom:   16    charge:    3.9750    magn:    0.4044    constr:    0.0000
     atom:   17    charge:    3.9716    magn:    0.3934    constr:    0.0000
     atom:   18    charge:    3.9702    magn:    0.4034    constr:    0.0000
     atom:   19    charge:    3.9694    magn:    0.3929    constr:    0.0000
     atom:   20    charge:    3.9750    magn:    0.4044    constr:    0.0000
     atom:   21    charge:    3.9714    magn:    0.3942    constr:    0.0000
     atom:   22    charge:    3.9704    magn:    0.3960    constr:    0.0000
     atom:   23    charge:    3.9698    magn:    0.4032    constr:    0.0000
     atom:   24    charge:    3.9724    magn:    0.4016    constr:    0.0000
     atom:   25    charge:    3.9719    magn:    0.3991    constr:    0.0000
     atom:   26    charge:    3.9704    magn:    0.3960    constr:    0.0000
     atom:   27    charge:    3.9698    magn:    0.4032    constr:    0.0000
     atom:   28    charge:    3.9750    magn:    0.4044    constr:    0.0000
     atom:   29    charge:    3.9714    magn:    0.3942    constr:    0.0000
     atom:   30    charge:    3.9702    magn:    0.3997    constr:    0.0000
     atom:   31    charge:    3.9702    magn:    0.3952    constr:    0.0000
     atom:   32    charge:    3.9723    magn:    0.3974    constr:    0.0000
     atom:   33    charge:    3.9714    magn:    0.3942    constr:    0.0000
     atom:   34    charge:    3.9702    magn:    0.3997    constr:    0.0000
     atom:   35    charge:    3.9698    magn:    0.4032    constr:    0.0000
     atom:   36    charge:    3.9750    magn:    0.4044    constr:    0.0000
     atom:   37    charge:    2.0167    magn:    0.3121    constr:    0.0000

     total cpu time spent up to now is     1383.7 secs

     total energy              =   -3656.49043624 Ry
     Harris-Foulkes estimate   =   -3656.49013526 Ry
     estimated scf accuracy    <       0.04626601 Ry

     total magnetization       =    23.00 Bohr mag/cell
     absolute magnetization    =    27.74 Bohr mag/cell

     iteration # 18     ecut=    44.10 Ry     beta=0.10
     Davidson diagonalization with overlap
     ethr =  3.93E-06,  avg # of iterations =  1.0

     negative rho (up, down):  3.284E-04 2.888E-04
 
     Adding external electric field

     Computed dipole along edir(3) : 
        Dipole               -0.3580 Ry au,         -0.9100 Debye
        Dipole field         -0.0006 Ry au
 
        Potential amp.        0.0498 Ry
        Total length         38.9923 bohr
 
 
     Adding external electric field

     Computed dipole along edir(3) : 
        Dipole               -0.3580 Ry au,         -0.9100 Debye
        Dipole field         -0.0006 Ry au
 
        Potential amp.        0.0498 Ry
        Total length         38.9923 bohr
 
 
     Magnetic moment per site:
     atom:    1    charge:    3.9718    magn:    0.3947    constr:    0.0000
     atom:    2    charge:    3.9698    magn:    0.4043    constr:    0.0000
     atom:    3    charge:    3.9693    magn:    0.3938    constr:    0.0000
     atom:    4    charge:    3.9520    magn:    0.4657    constr:    0.0000
     atom:    5    charge:    3.9718    magn:    0.3947    constr:    0.0000
     atom:    6    charge:    3.9698    magn:    0.4043    constr:    0.0000
     atom:    7    charge:    3.9702    magn:    0.3955    constr:    0.0000
     atom:    8    charge:    3.9750    magn:    0.4052    constr:    0.0000
     atom:    9    charge:    3.9720    magn:    0.3928    constr:    0.0000
     atom:   10    charge:    3.9698    magn:    0.4007    constr:    0.0000
     atom:   11    charge:    3.9702    magn:    0.3955    constr:    0.0000
     atom:   12    charge:    3.9750    magn:    0.4052    constr:    0.0000
     atom:   13    charge:    3.9718    magn:    0.3947    constr:    0.0000
     atom:   14    charge:    3.9696    magn:    0.3971    constr:    0.0000
     atom:   15    charge:    3.9693    magn:    0.3937    constr:    0.0000
     atom:   16    charge:    3.9750    magn:    0.4052    constr:    0.0000
     atom:   17    charge:    3.9720    magn:    0.3938    constr:    0.0000
[...]
    10.2073  10.2676  10.5500  10.7886  10.8547  10.8656  10.8739  10.9438
    11.0486  11.1823  11.3441  11.4668  11.4761  11.6270  11.7755  11.8404
    11.8510  11.9252  12.0525  12.1565  12.2171  12.2529  12.2690  12.5068
    12.6818  12.8016  13.0369  13.0500  13.0827  13.1193  13.1607  13.1880
    13.3239  13.4008  13.4583

 ------ SPIN DOWN ----------


          k = 0.0000 0.0000 0.0000 ( 34645 PWs)   bands (ev):

   -14.9394  -6.4597  -5.1307  -3.3998  -3.3245  -3.3058  -3.3057  -3.3026
    -3.2951  -3.2950  -2.5524  -2.4744  -2.4743  -2.4728  -2.4680  -2.4680
    -2.3892  -1.9344  -1.6704  -1.6704  -1.6271  -1.6271  -1.6248  -1.5893
    -1.4004  -1.4003  -1.0916  -1.0901  -1.0901  -1.0801  -1.0801  -1.0461
    -0.9453  -0.9328  -0.9276  -0.9275  -0.9075  -0.9074  -0.8862  -0.8861
    -0.8737  -0.8736  -0.8634  -0.8600  -0.8235  -0.8235  -0.7900  -0.7899
    -0.5804  -0.5551  -0.5332  -0.5332  -0.5244  -0.4818  -0.4350  -0.4350
    -0.4159  -0.3676  -0.1472  -0.1472  -0.1434  -0.1169  -0.0783  -0.0783
     0.0093   0.0093   0.0584   0.0584   0.1575   0.1575   0.1635   0.1929
     0.1982   0.1983   0.2285   0.3118   0.3664   0.3664   0.4140   0.4140
     0.4768   0.4805   0.4806   0.4884   0.4885   0.4944   0.5058   0.5058
     0.5107   0.5107   0.5498   0.5499   0.5600   0.5722   0.5723   0.6165
     0.6166   0.6281   0.6484   0.6501   0.6502   0.6602   0.6602   0.6675
     0.6675   0.6705   0.7208   0.7313   0.7313   0.7467   0.7468   0.7929
     0.8388   0.8388   0.8439   0.9724   0.9724   0.9903   1.0090   1.0090
     1.0842   1.0843   1.0933   1.1376   1.1446   1.1446   1.1557   1.2280
     1.2300   1.3553   1.3553   1.4281   1.4281   1.4438   1.4438   1.5290
     1.5290   1.5649   1.5649   1.5717   1.5788   1.5997   1.5997   1.6428
     1.6901   1.6902   1.7160   1.7160   1.7236   1.7409   1.7409   1.7670
     1.7843   1.7843   1.8060   1.8133   1.8133   1.8206   1.8212   1.8212
     1.8405   1.8509   1.8509   1.8734   1.8735   1.9195   1.9204   1.9263
     1.9323   1.9323   1.9440   1.9517   1.9517   1.9748   1.9821   1.9832
     1.9832   2.0101   2.0102   2.0178   2.0267   2.0347   2.0348   2.0409
     2.0808   2.0808   2.0913   2.0971   2.0972   2.1579   2.1579   2.1714
     2.2120   2.2121   2.2355   2.2400   2.2401   2.2451   2.2986   2.2986
     2.5880   3.0208   3.0209   3.0248   3.2686   3.2687   3.8420   5.2268
     5.2268   5.2440   5.3728   5.3728   6.0526   6.5152   6.8837   6.9226
     7.0677   7.1421   7.1421   7.1630   7.1630   7.5673   7.5673   7.5839
     7.6953   7.6954   7.8925   7.8925   7.9964   7.9965   8.1569   8.3280
     8.8936   8.9142   8.9641   9.6693   9.6714   9.6714   9.6914   9.6915
     9.7241   9.7241   9.8681   9.8681   9.9196  10.1970  10.1971  10.1980
    10.2309  10.2310  10.4409  10.8698  10.8698  10.8984  10.9073  10.9073
    10.9134  10.9394  11.1245  11.2243  11.3107  11.5880  11.5880  11.6030
    11.6167  11.6167  11.6590  11.7206  11.7256  11.7327  11.7327  11.7534
    11.7534  12.0155  12.5792  12.5793  12.5969  12.6637  12.7058  12.7059
    13.0793  13.2223  13.2223

          k = 0.0000 0.0510 0.0000 ( 34862 PWs)   bands (ev):

   -14.9394  -6.0519  -4.8973  -4.7436  -3.8598  -3.8537  -3.6904  -3.0424
    -2.8280  -2.8146  -2.3953  -2.3702  -2.1946  -2.1683  -2.1069  -2.0286
    -1.9654  -1.9241  -1.8519  -1.6695  -1.6231  -1.5245  -1.5029  -1.4775
    -1.4391  -1.4236  -1.4017  -1.3883  -1.3659  -1.2933  -1.2773  -1.2452
    -1.1366  -1.0681  -1.0638  -1.0517  -1.0324  -0.9200  -0.9190  -0.8943
    -0.8711  -0.8636  -0.8605  -0.7478  -0.7350  -0.7029  -0.6026  -0.5866
    -0.5592  -0.5583  -0.4753  -0.4575  -0.4441  -0.4164  -0.4086  -0.3732
    -0.3697  -0.2596  -0.2564  -0.2097  -0.1936  -0.1606  -0.1135  -0.0671
     0.0020   0.0110   0.0333   0.0497   0.0521   0.0846   0.1022   0.1281
     0.1747   0.1895   0.2091   0.2162   0.2370   0.2497   0.2754   0.2919
     0.3117   0.3139   0.3663   0.3732   0.4126   0.4511   0.4564   0.4793
     0.4870   0.4891   0.5074   0.5255   0.5270   0.5529   0.5595   0.5659
     0.5683   0.5993   0.6158   0.6308   0.6525   0.6650   0.6911   0.6936
     0.7029   0.7258   0.7436   0.7544   0.7696   0.7713   0.8051   0.8270
     0.8492   0.8671   0.8677   0.9022   0.9089   0.9740   0.9886   0.9931
     1.0680   1.0693   1.1185   1.1317   1.1421   1.1638   1.1644   1.1937
     1.2062   1.2140   1.2324   1.2402   1.2984   1.3012   1.3511   1.3909
     1.4071   1.4321   1.4459   1.4776   1.4792   1.5209   1.5586   1.5673
     1.6069   1.6110   1.6214   1.6220   1.6303   1.6419   1.6786   1.7075
     1.7270   1.7391   1.7611   1.7670   1.7932   1.8170   1.8304   1.8364
     1.8572   1.8672   1.8708   1.9133   1.9206   1.9505   1.9597   1.9623
     2.0119   2.0190   2.0294   2.0339   2.0531   2.0698   2.1141   2.1274
     2.1340   2.1444   2.1474   2.1579   2.1662   2.1777   2.1833   2.1999
     2.2425   2.2528   2.2608   2.2834   2.2886   2.3045   2.3251   2.3523
     2.3917   2.4799   2.6035   2.7646   2.7648   2.8035   2.9568   3.0561
     3.1212   3.2404   3.3129   3.7063   4.0310   4.1412   4.1921   4.4139
     4.4858   4.5048   4.8579   5.0806   5.1445   5.1599   5.6440   5.7194
     6.2895   6.3722   6.3725   6.5005   6.8968   6.9185   7.1607   7.3972
     7.4623   7.4818   8.0401   8.3709   8.4331   8.5821   8.8629   8.8925
     8.9101   8.9444   9.0380   9.1342   9.1443   9.2211   9.3737   9.4599
     9.5254   9.5666   9.5809   9.6038   9.7783   9.9420  10.1476  10.2518
    10.3499  10.3938  10.6700  10.8021  10.8910  10.9709  10.9949  11.0206
    11.0887  11.2446  11.4233  11.5045  11.5120  11.6806  11.8255  11.8883
    11.9180  12.0104  12.1595  12.2479  12.2888  12.3193  12.3702  12.5608
    12.6996  12.8744  13.0702  13.1101  13.1262  13.1495  13.2297  13.2649
    13.3792  13.4472  13.4995

          k = 0.0442 0.0255 0.0000 ( 34862 PWs)   bands (ev):

   -14.9394  -6.0519  -4.8973  -4.7436  -3.8598  -3.8537  -3.6904  -3.0424
    -2.8280  -2.8146  -2.3953  -2.3702  -2.1946  -2.1683  -2.1069  -2.0286
    -1.9654  -1.9241  -1.8518  -1.6695  -1.6231  -1.5245  -1.5029  -1.4775
    -1.4391  -1.4235  -1.4017  -1.3882  -1.3659  -1.2933  -1.2773  -1.2452
    -1.1366  -1.0681  -1.0638  -1.0517  -1.0323  -0.9201  -0.9190  -0.8943
    -0.8711  -0.8636  -0.8605  -0.7477  -0.7350  -0.7029  -0.6026  -0.5866
    -0.5592  -0.5582  -0.4753  -0.4575  -0.4441  -0.4164  -0.4086  -0.3732
    -0.3696  -0.2596  -0.2564  -0.2097  -0.1936  -0.1606  -0.1135  -0.0671
     0.0020   0.0110   0.0333   0.0497   0.0521   0.0845   0.1022   0.1281
     0.1748   0.1895   0.2091   0.2162   0.2370   0.2497   0.2754   0.2919
     0.3118   0.3139   0.3663   0.3732   0.4126   0.4511   0.4564   0.4793
     0.4870   0.4891   0.5074   0.5255   0.5270   0.5529   0.5595   0.5659
     0.5683   0.5993   0.6158   0.6308   0.6525   0.6650   0.6911   0.6936
     0.7029   0.7258   0.7436   0.7544   0.7696   0.7713   0.8051   0.8269
     0.8491   0.8671   0.8677   0.9022   0.9089   0.9740   0.9886   0.9931
     1.0679   1.0693   1.1185   1.1317   1.1421   1.1638   1.1644   1.1937
     1.2062   1.2140   1.2324   1.2402   1.2984   1.3012   1.3511   1.3909
     1.4071   1.4321   1.4459   1.4776   1.4792   1.5209   1.5586   1.5673
     1.6069   1.6110   1.6214   1.6219   1.6303   1.6419   1.6786   1.7075
     1.7270   1.7391   1.7611   1.7670   1.7932   1.8170   1.8304   1.8364
     1.8572   1.8672   1.8708   1.9133   1.9206   1.9505   1.9597   1.9623
     2.0119   2.0190   2.0294   2.0339   2.0531   2.0698   2.1141   2.1275
     2.1340   2.1444   2.1474   2.1579   2.1662   2.1777   2.1834   2.1999
     2.2425   2.2528   2.2608   2.2834   2.2886   2.3045   2.3251   2.3524
     2.3917   2.4799   2.6035   2.7646   2.7648   2.8035   2.9568   3.0561
     3.1213   3.2404   3.3129   3.7062   4.0310   4.1412   4.1921   4.4139
     4.4858   4.5048   4.8579   5.0805   5.1445   5.1600   5.6441   5.7194
     6.2896   6.3722   6.3725   6.5005   6.8968   6.9185   7.1607   7.3972
     7.4623   7.4819   8.0401   8.3709   8.4331   8.5821   8.8628   8.8925
     8.9101   8.9444   9.0380   9.1342   9.1443   9.2211   9.3737   9.4599
     9.5254   9.5666   9.5809   9.6038   9.7783   9.9419  10.1476  10.2518
    10.3499  10.3938  10.6700  10.8022  10.8910  10.9709  10.9949  11.0206
    11.0887  11.2446  11.4233  11.5045  11.5120  11.6806  11.8255  11.8882
    11.9180  12.0104  12.1595  12.2479  12.2888  12.3192  12.3703  12.5608
    12.6996  12.8744  13.0702  13.1101  13.1262  13.1495  13.2297  13.2649
    13.3792  13.4472  13.4995

          k = 0.0442 0.0765 0.0000 ( 34881 PWs)   bands (ev):

   -14.9393  -5.2711  -5.2689  -5.2615  -4.0253  -4.0231  -4.0011  -2.4844
    -2.4446  -2.4388  -2.4274  -2.4228  -2.3879  -2.1184  -1.8413  -1.8398
    -1.8098  -1.8049  -1.8046  -1.7833  -1.7785  -1.7749  -1.6905  -1.5723
    -1.5707  -1.5117  -1.3645  -1.3552  -1.2984  -1.2957  -1.2920  -1.2351
    -1.2307  -1.2094  -1.1932  -1.1900  -1.1393  -1.1122  -1.0830  -1.0740
    -0.7178  -0.7094  -0.7074  -0.7011  -0.6975  -0.6969  -0.6577  -0.6424
    -0.6362  -0.3897  -0.3570  -0.3460  -0.3067  -0.3057  -0.3023  -0.2903
    -0.2901  -0.2523  -0.2016  -0.1792  -0.1663  -0.1229  -0.1179  -0.1151
    -0.0701  -0.0620  -0.0526  -0.0230  -0.0114  -0.0026   0.1209   0.1491
     0.1535   0.1844   0.1956   0.2206   0.2452   0.2562   0.2715   0.2768
     0.2776   0.2838   0.2869   0.2873   0.2969   0.3376   0.3407   0.3475
     0.3634   0.3698   0.3746   0.4036   0.4319   0.4451   0.5537   0.5595
     0.5921   0.6370   0.6418   0.6443   0.6691   0.6696   0.6891   0.7087
     0.7157   0.7206   0.7207   0.7671   0.7750   0.8039   0.8130   0.8717
     0.8859   0.8913   0.9329   1.0178   1.0198   1.0236   1.0717   1.0809
     1.0948   1.1125   1.1189   1.1252   1.1278   1.1401   1.1523   1.1617
     1.1626   1.1700   1.2112   1.2535   1.2594   1.2916   1.3102   1.3376
     1.3546   1.3941   1.4179   1.4494   1.4562   1.4673   1.4791   1.5151
     1.5266   1.5442   1.5575   1.5577   1.5729   1.5802   1.5900   1.6499
     1.6549   1.6725   1.7003   1.7259   1.7370   1.7558   1.7592   1.7700
     1.8568   1.9179   1.9434   1.9594   1.9662   1.9807   2.0399   2.0652
     2.0810   2.0827   2.0915   2.1090   2.1256   2.1470   2.1584   2.1661
     2.1667   2.1730   2.1841   2.1882   2.1930   2.1956   2.2104   2.2472
     2.2787   2.2847   2.2924   2.3006   2.3131   2.3135   2.3647   2.3926
     2.8197   2.8956   2.8979   2.8982   3.1674   3.1759   3.1795   3.5548
     3.5564   3.7692   3.8237   3.8359   3.9161   4.2948   4.3078   4.4711
     4.6127   4.6806   4.6821   4.9306   4.9526   5.1495   5.2248   5.2269
     5.3341   5.4161   5.4266   5.4600   6.4876   6.4918   6.7877   7.6596
     7.6605   7.6707   8.0338   8.0352   8.2718   8.2898   8.3086   8.3310
     8.8276   8.8760   8.9020   8.9128   8.9498   9.2483   9.2572   9.2594
     9.4611   9.7053   9.7171   9.8132   9.8154   9.8646  10.4916  10.7685
    10.7809  10.9185  11.0990  11.1532  11.2931  11.3009  11.3141  11.5473
    11.7395  11.7546  11.7745  11.8315  11.8638  11.8662  11.9262  11.9278
    12.1521  12.2791  12.2824  12.4002  12.5606  12.5805  12.6342  12.6851
    12.6984  12.7852  12.8139  12.9194  12.9307  12.9984  13.0142  13.1157
    13.1604  13.1981  13.5968

          k = 0.0442-0.0255 0.0000 ( 34862 PWs)   bands (ev):

   -14.9394  -6.0519  -4.8973  -4.7436  -3.8598  -3.8537  -3.6904  -3.0424
    -2.8280  -2.8146  -2.3953  -2.3702  -2.1946  -2.1683  -2.1069  -2.0286
    -1.9654  -1.9241  -1.8519  -1.6695  -1.6231  -1.5245  -1.5029  -1.4775
    -1.4391  -1.4236  -1.4017  -1.3883  -1.3659  -1.2933  -1.2773  -1.2452
    -1.1366  -1.0681  -1.0638  -1.0517  -1.0324  -0.9200  -0.9190  -0.8943
    -0.8711  -0.8636  -0.8605  -0.7478  -0.7350  -0.7029  -0.6026  -0.5866
    -0.5592  -0.5583  -0.4753  -0.4575  -0.4441  -0.4164  -0.4086  -0.3732
    -0.3697  -0.2596  -0.2564  -0.2097  -0.1936  -0.1606  -0.1135  -0.0671
     0.0020   0.0110   0.0333   0.0498   0.0521   0.0846   0.1022   0.1281
     0.1747   0.1895   0.2091   0.2161   0.2370   0.2497   0.2754   0.2919
     0.3117   0.3139   0.3664   0.3732   0.4126   0.4511   0.4564   0.4793
     0.4870   0.4891   0.5074   0.5255   0.5270   0.5529   0.5595   0.5659
     0.5683   0.5993   0.6158   0.6308   0.6525   0.6650   0.6911   0.6936
     0.7029   0.7258   0.7436   0.7544   0.7696   0.7713   0.8051   0.8270
     0.8492   0.8671   0.8677   0.9022   0.9089   0.9740   0.9886   0.9931
     1.0680   1.0694   1.1185   1.1317   1.1421   1.1638   1.1644   1.1937
     1.2062   1.2140   1.2324   1.2402   1.2984   1.3012   1.3511   1.3909
     1.4071   1.4321   1.4459   1.4776   1.4792   1.5209   1.5586   1.5673
     1.6069   1.6110   1.6214   1.6220   1.6303   1.6419   1.6786   1.7075
     1.7270   1.7391   1.7611   1.7670   1.7932   1.8170   1.8304   1.8364
     1.8572   1.8672   1.8708   1.9133   1.9206   1.9505   1.9597   1.9623
     2.0119   2.0190   2.0294   2.0339   2.0531   2.0698   2.1141   2.1274
     2.1340   2.1444   2.1474   2.1579   2.1662   2.1777   2.1833   2.1999
     2.2425   2.2528   2.2608   2.2834   2.2886   2.3045   2.3251   2.3523
     2.3917   2.4799   2.6035   2.7646   2.7648   2.8035   2.9568   3.0561
     3.1212   3.2405   3.3129   3.7063   4.0310   4.1411   4.1921   4.4139
     4.4858   4.5048   4.8579   5.0806   5.1445   5.1599   5.6440   5.7195
     6.2895   6.3722   6.3725   6.5005   6.8968   6.9185   7.1607   7.3972
     7.4623   7.4818   8.0401   8.3709   8.4331   8.5821   8.8629   8.8925
     8.9101   8.9444   9.0380   9.1342   9.1443   9.2211   9.3737   9.4599
     9.5254   9.5666   9.5809   9.6038   9.7783   9.9420  10.1476  10.2518
    10.3500  10.3938  10.6700  10.8022  10.8910  10.9709  10.9949  11.0206
    11.0887  11.2446  11.4233  11.5045  11.5120  11.6806  11.8255  11.8882
    11.9180  12.0104  12.1595  12.2479  12.2888  12.3193  12.3702  12.5608
    12.6996  12.8744  13.0702  13.1101  13.1262  13.1495  13.2297  13.2649
    13.3792  13.4472  13.4996

     the Fermi energy is     2.0354 ev

!    total energy              =   -3656.49776722 Ry
     Harris-Foulkes estimate   =   -3656.49777152 Ry
     estimated scf accuracy    <       0.00000064 Ry

     The total energy is the sum of the following terms:

     one-electron contribution =  -24274.32999557 Ry
     hartree contribution      =   12537.57334008 Ry
     xc contribution           =   -1514.19734099 Ry
     ewald contribution        =    9594.61960516 Ry
     electric field correction =       0.00024937 Ry
     smearing contrib. (-TS)   =      -0.16362528 Ry

     total magnetization       =    22.81 Bohr mag/cell
     absolute magnetization    =    26.72 Bohr mag/cell

     convergence has been achieved in  13 iterations

     Forces acting on atoms (Ry/au):


     negative rho (up, down):  2.931E-04 2.219E-04
     atom    1 type  1   force =     0.00028386    0.00017174    0.00484200
     atom    2 type  1   force =     0.00004399   -0.00013737   -0.00387776
     atom    3 type  1   force =    -0.00005243   -0.00000255   -0.00064435
     atom    4 type  1   force =     0.00001280    0.00000171    0.00097547
     atom    5 type  1   force =     0.00027422    0.00017961    0.00485286
     atom    6 type  1   force =    -0.00012512    0.00011112   -0.00387786
     atom    7 type  1   force =    -0.00012543    0.00019289   -0.00046760
     atom    8 type  1   force =    -0.00000221   -0.00058477   -0.00002892
     atom    9 type  1   force =     0.00008410    0.00001955    0.00483980
     atom   10 type  1   force =    -0.00015890   -0.00011180   -0.00566265
     atom   11 type  1   force =     0.00014048   -0.00021288   -0.00045003
     atom   12 type  1   force =    -0.00048840    0.00030756   -0.00002813
     atom   13 type  1   force =    -0.00022177    0.00010858    0.00486915
     atom   14 type  1   force =     0.00079059   -0.00054049   -0.00470666
     atom   15 type  1   force =     0.00008713   -0.00013321   -0.00062900
     atom   16 type  1   force =    -0.00057490    0.00023569    0.00001723
     atom   17 type  1   force =    -0.00002294   -0.00000312    0.00447110
     atom   18 type  1   force =     0.00006301    0.00002481   -0.00388106
     atom   19 type  1   force =    -0.00009529    0.00011704   -0.00063709
     atom   20 type  1   force =    -0.00007760   -0.00063862    0.00003284
     atom   21 type  1   force =    -0.00003344   -0.00026605    0.00487379
     atom   22 type  1   force =    -0.00009839    0.00095174   -0.00471370
     atom   23 type  1   force =    -0.00027084   -0.00014419    0.00049871
     atom   24 type  1   force =    -0.00009039   -0.00002580   -0.00090024
     atom   25 type  1   force =    -0.00006089   -0.00001621    0.00458698
     atom   26 type  1   force =    -0.00083580   -0.00045260   -0.00473054
     atom   27 type  1   force =    -0.00003991    0.00020441    0.00052366
     atom   28 type  1   force =     0.00056302    0.00033565    0.00001568
     atom   29 type  1   force =    -0.00025044    0.00009529    0.00483597
     atom   30 type  1   force =     0.00006145    0.00025160   -0.00568878
     atom   31 type  1   force =     0.00022257    0.00008760   -0.00041765
     atom   32 type  1   force =     0.00008563    0.00002605   -0.00000737
     atom   33 type  1   force =    -0.00005135   -0.00028845    0.00483034
     atom   34 type  1   force =     0.00025822   -0.00009856   -0.00569472
     atom   35 type  1   force =     0.00013115   -0.00010964    0.00053399
     atom   36 type  1   force =     0.00057534    0.00034362    0.00003127
     atom   37 type  2   force =    -0.00000113    0.00000004    0.00141325

     Total force =     0.020664     Total SCF correction =     0.002555
     SCF correction compared to forces is large: reduce conv_thr to get better values
 !ASE

     Writing output data file calc.save
 
     init_run     :     26.48s CPU     30.91s WALL (       1 calls)
     electrons    :  13165.41s CPU  15181.28s WALL (       8 calls)
     update_pot   :     15.76s CPU     16.73s WALL (       7 calls)
     forces       :    364.04s CPU    379.86s WALL (       8 calls)

     Called by init_run:
     wfcinit      :     17.54s CPU     21.29s WALL (       1 calls)
     potinit      :      0.89s CPU      0.96s WALL (       1 calls)

     Called by electrons:
     c_bands      :   8757.40s CPU  10293.48s WALL (     200 calls)
     sum_band     :   3188.44s CPU   3579.61s WALL (     200 calls)
     v_of_rho     :     70.03s CPU     81.46s WALL (     208 calls)
     newd         :   1176.24s CPU   1251.41s WALL (     208 calls)
     mix_rho      :     13.38s CPU     16.60s WALL (     200 calls)

     Called by c_bands:
     init_us_2    :     45.77s CPU     48.96s WALL (    4090 calls)
     cegterg      :   8491.33s CPU  10014.94s WALL (    2000 calls)

     Called by *egterg:
     h_psi        :   4342.69s CPU   5552.98s WALL (    5668 calls)
     s_psi        :    699.35s CPU    723.39s WALL (    5668 calls)
     g_psi        :     17.35s CPU     17.77s WALL (    3658 calls)
     cdiaghg      :   1530.18s CPU   1567.98s WALL (    5588 calls)

     Called by h_psi:
     add_vuspsi   :    704.54s CPU    727.80s WALL (    5668 calls)

     General routines
     calbec       :   1087.53s CPU   1114.48s WALL (    7748 calls)
     fft          :     64.54s CPU     76.19s WALL (    6520 calls)
     ffts         :      1.01s CPU      1.39s WALL (     816 calls)
     fftw         :   2443.16s CPU   3861.99s WALL ( 3016562 calls)
     interpolate  :      7.76s CPU     11.17s WALL (     816 calls)
     davcio       :      0.02s CPU      0.47s WALL (      10 calls)
 
     Parallel routines
     fft_scatter  :   1448.71s CPU   2268.67s WALL ( 3023898 calls)
 
     PWSCF        :     3h46m CPU        4h20m WALL

 
   This run was terminated on:  19:32:20  10Mar2017            

=------------------------------------------------------------------------------=
   JOB DONE.
=------------------------------------------------------------------------------=
