  python dir          : /home/vossj/suncat/lib/python2.7/site-packages/espresso
  espresso dir        : /home/vossj/suncat/esdld/espresso-dynpy-beef/bin
  pseudo dir          : /home/alatimer/bin/psp/esp_psp_w_gbrvRu/
  ase-espresso py git : ffa2778-git



     Program PWSCF v.5.1rc2 (svn rev. ) starts on 23Feb2018 at 23:45: 8 

     This program is part of the open-source Quantum ESPRESSO suite
     for quantum simulation of materials; please cite
         "P. Giannozzi et al., J. Phys.:Condens. Matter 21 395502 (2009);
          URL http://www.quantum-espresso.org", 
     in publications or presentations arising from this work. More details at
     http://www.quantum-espresso.org/quote

     Parallel version (MPI), running on    16 processors
     R & G space division:  proc/nbgrp/npool/nimage =      16
     Reading input from pw.inp
     Message from routine read_cards :
     DEPRECATED: no units specified in CELL_PARAMETERS card

     Current dimensions of program PWSCF are:
     Max number of different atomic species (ntypx) = 10
     Max number of k-points (npk) =  40000
     Max angular momentum in pseudopotentials (lmaxx) =  3
     Presently no symmetry can be used with electric field


     IMPORTANT: XC functional enforced from input :
     Exchange-correlation      = RPBE ( 1  4 28  4 0)
     Any further DFT definition will be discarded
     Please, verify this is what you really want

               file Ni.UPF: wavefunction(s)  3D renormalized

     Subspace diagonalization in iterative solution of the eigenvalue problem:
     a serial algorithm will be used

 
     Parallelization info
     --------------------
     sticks:   dense  smooth     PW     G-vecs:    dense   smooth      PW
     Min         630     252     68                99782    25206    3526
     Max         631     253     69                99791    25249    3527
     Sum       10093    4041   1091              1596589   403729   56419
 
     Generating pointlists ...
     new r_m :   0.4125 (alat units)  0.7795 (a.u.) for type    1
     new r_m :   0.4125 (alat units)  0.7795 (a.u.) for type    2


     bravais-lattice index     =            0
     lattice parameter (alat)  =       1.8897  a.u.
     unit-cell volume          =   10207.8337 (a.u.)^3
     number of atoms/cell      =           37
     number of atomic types    =            2
     number of electrons       =       366.00
     number of Kohn-Sham states=          283
     kinetic-energy cutoff     =      44.0992  Ry
     charge density cutoff     =     440.9919  Ry
     convergence threshold     =      7.3E-07
     mixing beta               =       0.1000
     number of iterations used =           10  plain     mixing
     Exchange-correlation      = RPBE ( 1  4 28  4 0)
     nstep                     =           50


     celldm(1)=   1.889726  celldm(2)=   0.000000  celldm(3)=   0.000000
     celldm(4)=   0.000000  celldm(5)=   0.000000  celldm(6)=   0.000000

     crystal axes: (cart. coord. in units of alat)
               a(1) = (  13.073539   0.000000   0.000000 )  
               a(2) = (  -4.357846   6.162925   0.000000 )  
               a(3) = (   0.000000   0.000000  18.774005 )  

     reciprocal axes: (cart. coord. in units 2 pi/alat)
               b(1) = (  0.076490  0.054087  0.000000 )  
               b(2) = (  0.000000  0.162261  0.000000 )  
               b(3) = (  0.000000  0.000000  0.053265 )  


     PseudoPot. # 1 for Ni read from file:
     /home/alatimer/bin/psp/esp_psp_w_gbrvRu/Ni.UPF
     MD5 check sum: 8b2449ee0060d9c33484ccd47bb60870
     Pseudo is Ultrasoft + core correction, Zval = 10.0
     Generated using "atomic" code by A. Dal Corso  v.5.0.2 svn rev. 9415
     Using radial grid of 1195 points,  6 beta functions with: 
                l(1) =   0
                l(2) =   0
                l(3) =   1
                l(4) =   1
                l(5) =   2
                l(6) =   2
     Q(r) pseudized with 0 coefficients 


     PseudoPot. # 2 for  O read from file:
     /home/alatimer/bin/psp/esp_psp_w_gbrvRu/O.UPF
     MD5 check sum: e057bbcf3229fb5d8c36c0c92f9568b4
     Pseudo is Ultrasoft + core correction, Zval =  6.0
     Generated using "atomic" code by A. Dal Corso  v.5.0.2 svn rev. 9415
     Using radial grid of 1095 points,  4 beta functions with: 
                l(1) =   0
                l(2) =   0
                l(3) =   1
                l(4) =   1
     Q(r) pseudized with 0 coefficients 


     atomic species   valence    mass     pseudopotential
        Ni1           10.00    58.69340     Ni( 1.00)
        O1             6.00    15.99940      O( 1.00)

     Starting magnetic structure 
     atomic species   magnetization
        Ni1          0.300
        O1           0.500

     No symmetry found



   Cartesian axes

     site n.     atom                  positions (alat units)
         1           Ni1 tau(   1) = (   0.0000000   0.0000000   7.5000000  )
         2           Ni1 tau(   2) = (   2.1789231   0.0000000   8.7580018  )
         3           Ni1 tau(   3) = (   0.0000000   0.0000000  10.0160037  )
         4           Ni1 tau(   4) = (   2.1789231   0.0000000  11.2740055  )
         5           Ni1 tau(   5) = (  -1.4526154   2.0543084   7.5000000  )
         6           Ni1 tau(   6) = (   0.7263077   2.0543084   8.7580018  )
         7           Ni1 tau(   7) = (  -1.4526154   2.0543084  10.0160037  )
         8           Ni1 tau(   8) = (   0.7263077   2.0543084  11.2740055  )
         9           Ni1 tau(   9) = (  -2.9052308   4.1086168   7.5000000  )
        10           Ni1 tau(  10) = (  -0.7263077   4.1086168   8.7580018  )
        11           Ni1 tau(  11) = (  -2.9052308   4.1086168  10.0160037  )
        12           Ni1 tau(  12) = (  -0.7263077   4.1086168  11.2740055  )
        13           Ni1 tau(  13) = (   4.3578462   0.0000000   7.5000000  )
        14           Ni1 tau(  14) = (   6.5367693   0.0000000   8.7580018  )
        15           Ni1 tau(  15) = (   4.3578462   0.0000000  10.0160037  )
        16           Ni1 tau(  16) = (   6.5367693   0.0000000  11.2740055  )
        17           Ni1 tau(  17) = (   2.9052308   2.0543084   7.5000000  )
        18           Ni1 tau(  18) = (   5.0841539   2.0543084   8.7580018  )
        19           Ni1 tau(  19) = (   2.9052308   2.0543084  10.0160037  )
        20           Ni1 tau(  20) = (   5.0841539   2.0543084  11.2740055  )
        21           Ni1 tau(  21) = (   1.4526154   4.1086168   7.5000000  )
        22           Ni1 tau(  22) = (   3.6315385   4.1086168   8.7580018  )
        23           Ni1 tau(  23) = (   1.4526154   4.1086168  10.0160037  )
        24           Ni1 tau(  24) = (   3.6315385   4.1086168  11.2740055  )
        25           Ni1 tau(  25) = (   8.7156924   0.0000000   7.5000000  )
        26           Ni1 tau(  26) = (  10.8946154   0.0000000   8.7580018  )
        27           Ni1 tau(  27) = (   8.7156924   0.0000000  10.0160037  )
        28           Ni1 tau(  28) = (  10.8946154   0.0000000  11.2740055  )
        29           Ni1 tau(  29) = (   7.2630770   2.0543084   7.5000000  )
        30           Ni1 tau(  30) = (   9.4420001   2.0543084   8.7580018  )
        31           Ni1 tau(  31) = (   7.2630770   2.0543084  10.0160037  )
        32           Ni1 tau(  32) = (   9.4420001   2.0543084  11.2740055  )
        33           Ni1 tau(  33) = (   5.8104616   4.1086168   7.5000000  )
        34           Ni1 tau(  34) = (   7.9893847   4.1086168   8.7580018  )
        35           Ni1 tau(  35) = (   5.8104616   4.1086168  10.0160037  )
        36           Ni1 tau(  36) = (   7.9893847   4.1086168  11.2740055  )
        37           O1  tau(  37) = (   0.7263077   2.0543084  12.9740055  )

     number of k points=    10  Fermi-Dirac smearing, width (Ry)=  0.0073
                       cart. coord. in units 2pi/alat
        k(    1) = (   0.0000000   0.0000000   0.0000000), wk =   0.1111111
        k(    2) = (   0.0000000   0.0540869   0.0000000), wk =   0.2222222
        k(    3) = (   0.0254968   0.0180290   0.0000000), wk =   0.2222222
        k(    4) = (   0.0254968   0.0721158   0.0000000), wk =   0.2222222
        k(    5) = (   0.0254968  -0.0360579   0.0000000), wk =   0.2222222
        k(    6) = (   0.0000000   0.0000000   0.0000000), wk =   0.1111111
        k(    7) = (   0.0000000   0.0540869   0.0000000), wk =   0.2222222
        k(    8) = (   0.0254968   0.0180290   0.0000000), wk =   0.2222222
        k(    9) = (   0.0254968   0.0721158   0.0000000), wk =   0.2222222
        k(   10) = (   0.0254968  -0.0360579   0.0000000), wk =   0.2222222

     Dense  grid:  1596589 G-vectors     FFT dimensions: ( 180,  96, 240)

     Smooth grid:   403729 G-vectors     FFT dimensions: ( 108,  64, 150)

     Largest allocated arrays     est. size (Mb)     dimensions
        Kohn-Sham Wavefunctions        13.74 Mb     (    3181,  283)
        NL pseudopotentials            31.84 Mb     (    3181,  656)
        Each V/rho on FFT grid          7.91 Mb     (  259200,   2)
        Each G-vector array             0.76 Mb     (   99791)
        G-vector shells                 0.33 Mb     (   42988)
     Largest temporary arrays     est. size (Mb)     dimensions
        Auxiliary wavefunctions        54.95 Mb     (    3181, 1132)
        Each subspace H/S matrix       19.55 Mb     (    1132, 1132)
        Each <psi_i|beta_j> matrix      2.83 Mb     (     656,  283)
        Arrays for rho mixing          39.55 Mb     (  259200,   10)

     Check: negative/imaginary core charge=   -0.000003    0.000000

     Initial potential from superposition of free atoms
     Check: negative starting charge=(component1):   -0.000543
     Check: negative starting charge=(component2):   -0.000285

     starting charge  365.99096, renormalised to  366.00000

     negative rho (up, down):  5.435E-04 2.852E-04
 
     Adding external electric field

     Computed dipole along edir(3) : 
        Dipole               -0.0010 Ry au,         -0.0025 Debye
        Dipole field         -0.0000 Ry au
 
        Potential amp.        0.0001 Ry
        Total length         34.5908 bohr
 
 
     Adding external electric field

     Computed dipole along edir(3) : 
        Dipole               -0.0010 Ry au,         -0.0025 Debye
        Dipole field         -0.0000 Ry au
 
        Potential amp.        0.0001 Ry
        Total length         34.5908 bohr
 
     Starting wfc are  328 randomized atomic wfcs

     total cpu time spent up to now is       52.7 secs

     Self-consistent Calculation

     iteration #  1     ecut=    44.10 Ry     beta=0.10
     Davidson diagonalization with overlap
     ethr =  1.00E-02,  avg # of iterations =  7.1

     negative rho (up, down):  5.058E-04 2.624E-04
 
     Adding external electric field

     Computed dipole along edir(3) : 
        Dipole               -0.0190 Ry au,         -0.0484 Debye
        Dipole field         -0.0000 Ry au
 
        Potential amp.        0.0016 Ry
        Total length         34.5908 bohr
 
 
     Adding external electric field

     Computed dipole along edir(3) : 
        Dipole               -0.0190 Ry au,         -0.0484 Debye
        Dipole field         -0.0000 Ry au
 
        Potential amp.        0.0016 Ry
        Total length         34.5908 bohr
 
 
     Magnetic moment per site:
     atom:    1    charge:    3.9567    magn:    1.1247    constr:    0.0000
     atom:    2    charge:    3.9767    magn:    1.1070    constr:    0.0000
     atom:    3    charge:    3.9775    magn:    1.1068    constr:    0.0000
     atom:    4    charge:    3.9565    magn:    1.1252    constr:    0.0000
     atom:    5    charge:    3.9568    magn:    1.1247    constr:    0.0000
     atom:    6    charge:    3.9791    magn:    1.1040    constr:    0.0000
     atom:    7    charge:    3.9775    magn:    1.1068    constr:    0.0000
     atom:    8    charge:    3.9440    magn:    1.1385    constr:    0.0000
     atom:    9    charge:    3.9562    magn:    1.1249    constr:    0.0000
     atom:   10    charge:    3.9767    magn:    1.1070    constr:    0.0000
     atom:   11    charge:    3.9765    magn:    1.1072    constr:    0.0000
     atom:   12    charge:    3.9565    magn:    1.1253    constr:    0.0000
     atom:   13    charge:    3.9562    magn:    1.1249    constr:    0.0000
     atom:   14    charge:    3.9767    magn:    1.1069    constr:    0.0000
     atom:   15    charge:    3.9764    magn:    1.1072    constr:    0.0000
     atom:   16    charge:    3.9562    magn:    1.1248    constr:    0.0000
     atom:   17    charge:    3.9567    magn:    1.1247    constr:    0.0000
     atom:   18    charge:    3.9767    magn:    1.1069    constr:    0.0000
     atom:   19    charge:    3.9775    magn:    1.1068    constr:    0.0000
     atom:   20    charge:    3.9562    magn:    1.1248    constr:    0.0000
     atom:   21    charge:    3.9567    magn:    1.1247    constr:    0.0000
     atom:   22    charge:    3.9765    magn:    1.1071    constr:    0.0000
     atom:   23    charge:    3.9775    magn:    1.1068    constr:    0.0000
     atom:   24    charge:    3.9558    magn:    1.1252    constr:    0.0000
     atom:   25    charge:    3.9562    magn:    1.1248    constr:    0.0000
     atom:   26    charge:    3.9765    magn:    1.1071    constr:    0.0000
     atom:   27    charge:    3.9765    magn:    1.1072    constr:    0.0000
     atom:   28    charge:    3.9558    magn:    1.1252    constr:    0.0000
     atom:   29    charge:    3.9555    magn:    1.1256    constr:    0.0000
     atom:   30    charge:    3.9767    magn:    1.1069    constr:    0.0000
     atom:   31    charge:    3.9766    magn:    1.1070    constr:    0.0000
     atom:   32    charge:    3.9562    magn:    1.1248    constr:    0.0000
     atom:   33    charge:    3.9562    magn:    1.1248    constr:    0.0000
     atom:   34    charge:    3.9767    magn:    1.1069    constr:    0.0000
     atom:   35    charge:    3.9764    magn:    1.1071    constr:    0.0000
     atom:   36    charge:    3.9562    magn:    1.1248    constr:    0.0000
     atom:   37    charge:    1.9965    magn:    0.9581    constr:    0.0000

     total cpu time spent up to now is      231.1 secs

     total energy              =   -3653.68225204 Ry
     Harris-Foulkes estimate   =   -3654.85873141 Ry
     estimated scf accuracy    <      11.89218173 Ry

     total magnetization       =    35.92 Bohr mag/cell
     absolute magnetization    =    35.96 Bohr mag/cell

     iteration #  2     ecut=    44.10 Ry     beta=0.10
     Davidson diagonalization with overlap
     ethr =  3.25E-03,  avg # of iterations =  1.2

     negative rho (up, down):  5.008E-04 2.795E-04
 
     Adding external electric field

     Computed dipole along edir(3) : 
        Dipole               -0.2802 Ry au,         -0.7122 Debye
        Dipole field         -0.0003 Ry au
 
        Potential amp.        0.0239 Ry
        Total length         34.5908 bohr
 
 
     Adding external electric field

     Computed dipole along edir(3) : 
        Dipole               -0.2802 Ry au,         -0.7122 Debye
        Dipole field         -0.0003 Ry au
 
        Potential amp.        0.0239 Ry
        Total length         34.5908 bohr
 
 
     Magnetic moment per site:
     atom:    1    charge:    3.9750    magn:    1.0896    constr:    0.0000
     atom:    2    charge:    3.9636    magn:    1.0931    constr:    0.0000
     atom:    3    charge:    3.9629    magn:    1.0945    constr:    0.0000
     atom:    4    charge:    3.9758    magn:    1.0894    constr:    0.0000
     atom:    5    charge:    3.9750    magn:    1.0897    constr:    0.0000
     atom:    6    charge:    3.9632    magn:    1.0916    constr:    0.0000
     atom:    7    charge:    3.9629    magn:    1.0945    constr:    0.0000
     atom:    8    charge:    3.9577    magn:    1.1100    constr:    0.0000
     atom:    9    charge:    3.9755    magn:    1.0889    constr:    0.0000
     atom:   10    charge:    3.9636    magn:    1.0931    constr:    0.0000
     atom:   11    charge:    3.9635    magn:    1.0931    constr:    0.0000
     atom:   12    charge:    3.9758    magn:    1.0894    constr:    0.0000
     atom:   13    charge:    3.9755    magn:    1.0889    constr:    0.0000
     atom:   14    charge:    3.9643    magn:    1.0925    constr:    0.0000
     atom:   15    charge:    3.9636    magn:    1.0931    constr:    0.0000
     atom:   16    charge:    3.9757    magn:    1.0886    constr:    0.0000
     atom:   17    charge:    3.9750    magn:    1.0896    constr:    0.0000
     atom:   18    charge:    3.9643    magn:    1.0925    constr:    0.0000
     atom:   19    charge:    3.9629    magn:    1.0945    constr:    0.0000
     atom:   20    charge:    3.9757    magn:    1.0886    constr:    0.0000
     atom:   21    charge:    3.9750    magn:    1.0896    constr:    0.0000
     atom:   22    charge:    3.9639    magn:    1.0928    constr:    0.0000
     atom:   23    charge:    3.9629    magn:    1.0945    constr:    0.0000
     atom:   24    charge:    3.9757    magn:    1.0887    constr:    0.0000
     atom:   25    charge:    3.9759    magn:    1.0885    constr:    0.0000
     atom:   26    charge:    3.9639    magn:    1.0928    constr:    0.0000
     atom:   27    charge:    3.9647    magn:    1.0922    constr:    0.0000
     atom:   28    charge:    3.9757    magn:    1.0887    constr:    0.0000
     atom:   29    charge:    3.9759    magn:    1.0887    constr:    0.0000
     atom:   30    charge:    3.9643    magn:    1.0925    constr:    0.0000
     atom:   31    charge:    3.9646    magn:    1.0922    constr:    0.0000
     atom:   32    charge:    3.9757    magn:    1.0886    constr:    0.0000
     atom:   33    charge:    3.9759    magn:    1.0885    constr:    0.0000
     atom:   34    charge:    3.9643    magn:    1.0925    constr:    0.0000
     atom:   35    charge:    3.9647    magn:    1.0921    constr:    0.0000
     atom:   36    charge:    3.9757    magn:    1.0886    constr:    0.0000
     atom:   37    charge:    2.0103    magn:    0.9324    constr:    0.0000

     total cpu time spent up to now is      341.8 secs

     total energy              =   -3653.88303662 Ry
     Harris-Foulkes estimate   =   -3654.79223808 Ry
     estimated scf accuracy    <      15.55951358 Ry

     total magnetization       =    37.90 Bohr mag/cell
     absolute magnetization    =    38.15 Bohr mag/cell

     iteration #  3     ecut=    44.10 Ry     beta=0.10
     Davidson diagonalization with overlap
     ethr =  3.25E-03,  avg # of iterations =  1.0

     negative rho (up, down):  4.970E-04 2.801E-04
 
     Adding external electric field

     Computed dipole along edir(3) : 
        Dipole                0.6073 Ry au,          1.5437 Debye
        Dipole field          0.0007 Ry au
 
        Potential amp.       -0.0517 Ry
        Total length         34.5908 bohr
 
 
     Adding external electric field

     Computed dipole along edir(3) : 
        Dipole                0.6073 Ry au,          1.5437 Debye
        Dipole field          0.0007 Ry au
 
        Potential amp.       -0.0517 Ry
        Total length         34.5908 bohr
 
 
     Magnetic moment per site:
     atom:    1    charge:    3.9967    magn:    1.0179    constr:    0.0000
     atom:    2    charge:    3.9717    magn:    1.0266    constr:    0.0000
     atom:    3    charge:    3.9679    magn:    1.0319    constr:    0.0000
     atom:    4    charge:    3.9786    magn:    1.0353    constr:    0.0000
     atom:    5    charge:    3.9967    magn:    1.0179    constr:    0.0000
     atom:    6    charge:    3.9731    magn:    1.0221    constr:    0.0000
     atom:    7    charge:    3.9679    magn:    1.0320    constr:    0.0000
     atom:    8    charge:    3.9635    magn:    1.0582    constr:    0.0000
     atom:    9    charge:    3.9957    magn:    1.0180    constr:    0.0000
     atom:   10    charge:    3.9717    magn:    1.0266    constr:    0.0000
     atom:   11    charge:    3.9651    magn:    1.0329    constr:    0.0000
     atom:   12    charge:    3.9786    magn:    1.0353    constr:    0.0000
     atom:   13    charge:    3.9956    magn:    1.0181    constr:    0.0000
     atom:   14    charge:    3.9674    magn:    1.0304    constr:    0.0000
     atom:   15    charge:    3.9651    magn:    1.0329    constr:    0.0000
     atom:   16    charge:    3.9774    magn:    1.0351    constr:    0.0000
     atom:   17    charge:    3.9967    magn:    1.0179    constr:    0.0000
     atom:   18    charge:    3.9674    magn:    1.0305    constr:    0.0000
     atom:   19    charge:    3.9679    magn:    1.0320    constr:    0.0000
     atom:   20    charge:    3.9774    magn:    1.0351    constr:    0.0000
     atom:   21    charge:    3.9967    magn:    1.0179    constr:    0.0000
     atom:   22    charge:    3.9683    magn:    1.0297    constr:    0.0000
     atom:   23    charge:    3.9679    magn:    1.0320    constr:    0.0000
     atom:   24    charge:    3.9779    magn:    1.0349    constr:    0.0000
     atom:   25    charge:    3.9907    magn:    1.0229    constr:    0.0000
     atom:   26    charge:    3.9683    magn:    1.0297    constr:    0.0000
     atom:   27    charge:    3.9618    magn:    1.0357    constr:    0.0000
     atom:   28    charge:    3.9779    magn:    1.0348    constr:    0.0000
     atom:   29    charge:    3.9904    magn:    1.0237    constr:    0.0000
     atom:   30    charge:    3.9674    magn:    1.0304    constr:    0.0000
     atom:   31    charge:    3.9615    magn:    1.0361    constr:    0.0000
     atom:   32    charge:    3.9775    magn:    1.0351    constr:    0.0000
     atom:   33    charge:    3.9907    magn:    1.0229    constr:    0.0000
     atom:   34    charge:    3.9674    magn:    1.0304    constr:    0.0000
     atom:   35    charge:    3.9618    magn:    1.0357    constr:    0.0000
     atom:   36    charge:    3.9774    magn:    1.0351    constr:    0.0000
     atom:   37    charge:    2.0282    magn:    0.8803    constr:    0.0000

     total cpu time spent up to now is      451.5 secs

     total energy              =   -3654.28245087 Ry
     Harris-Foulkes estimate   =   -3654.45374266 Ry
     estimated scf accuracy    <       5.46606145 Ry

     total magnetization       =    37.62 Bohr mag/cell
     absolute magnetization    =    37.81 Bohr mag/cell

     iteration #  4     ecut=    44.10 Ry     beta=0.10
     Davidson diagonalization with overlap
     ethr =  1.49E-03,  avg # of iterations =  5.6

     negative rho (up, down):  4.931E-04 2.996E-04
 
     Adding external electric field

     Computed dipole along edir(3) : 
        Dipole               -0.6260 Ry au,         -1.5911 Debye
        Dipole field         -0.0008 Ry au
 
        Potential amp.        0.0533 Ry
        Total length         34.5908 bohr
 
 
     Adding external electric field

     Computed dipole along edir(3) : 
        Dipole               -0.6260 Ry au,         -1.5911 Debye
        Dipole field         -0.0008 Ry au
 
        Potential amp.        0.0533 Ry
        Total length         34.5908 bohr
 
 
     Magnetic moment per site:
     atom:    1    charge:    3.9959    magn:    0.9714    constr:    0.0000
     atom:    2    charge:    3.9721    magn:    0.9734    constr:    0.0000
     atom:    3    charge:    3.9736    magn:    0.9751    constr:    0.0000
     atom:    4    charge:    3.9908    magn:    0.9786    constr:    0.0000
     atom:    5    charge:    3.9959    magn:    0.9714    constr:    0.0000
     atom:    6    charge:    3.9738    magn:    0.9672    constr:    0.0000
     atom:    7    charge:    3.9736    magn:    0.9751    constr:    0.0000
     atom:    8    charge:    3.9715    magn:    1.0098    constr:    0.0000
     atom:    9    charge:    3.9955    magn:    0.9707    constr:    0.0000
     atom:   10    charge:    3.9721    magn:    0.9734    constr:    0.0000
     atom:   11    charge:    3.9701    magn:    0.9762    constr:    0.0000
     atom:   12    charge:    3.9908    magn:    0.9786    constr:    0.0000
     atom:   13    charge:    3.9955    magn:    0.9707    constr:    0.0000
     atom:   14    charge:    3.9703    magn:    0.9754    constr:    0.0000
     atom:   15    charge:    3.9701    magn:    0.9762    constr:    0.0000
     atom:   16    charge:    3.9907    magn:    0.9773    constr:    0.0000
     atom:   17    charge:    3.9959    magn:    0.9714    constr:    0.0000
     atom:   18    charge:    3.9703    magn:    0.9754    constr:    0.0000
     atom:   19    charge:    3.9736    magn:    0.9751    constr:    0.0000
     atom:   20    charge:    3.9907    magn:    0.9773    constr:    0.0000
     atom:   21    charge:    3.9959    magn:    0.9714    constr:    0.0000
     atom:   22    charge:    3.9712    magn:    0.9746    constr:    0.0000
     atom:   23    charge:    3.9736    magn:    0.9751    constr:    0.0000
     atom:   24    charge:    3.9912    magn:    0.9769    constr:    0.0000
     atom:   25    charge:    3.9961    magn:    0.9710    constr:    0.0000
     atom:   26    charge:    3.9712    magn:    0.9746    constr:    0.0000
     atom:   27    charge:    3.9673    magn:    0.9790    constr:    0.0000
     atom:   28    charge:    3.9913    magn:    0.9769    constr:    0.0000
     atom:   29    charge:    3.9967    magn:    0.9712    constr:    0.0000
     atom:   30    charge:    3.9703    magn:    0.9754    constr:    0.0000
     atom:   31    charge:    3.9669    magn:    0.9794    constr:    0.0000
     atom:   32    charge:    3.9907    magn:    0.9773    constr:    0.0000
     atom:   33    charge:    3.9961    magn:    0.9710    constr:    0.0000
     atom:   34    charge:    3.9703    magn:    0.9754    constr:    0.0000
     atom:   35    charge:    3.9673    magn:    0.9790    constr:    0.0000
     atom:   36    charge:    3.9907    magn:    0.9773    constr:    0.0000
     atom:   37    charge:    2.0454    magn:    0.8322    constr:    0.0000

     total cpu time spent up to now is      582.9 secs

     total energy              =   -3654.08519578 Ry
     Harris-Foulkes estimate   =   -3655.27568758 Ry
     estimated scf accuracy    <      61.42714297 Ry

     total magnetization       =    39.44 Bohr mag/cell
     absolute magnetization    =    39.75 Bohr mag/cell

     iteration #  5     ecut=    44.10 Ry     beta=0.10
     Davidson diagonalization with overlap
     ethr =  1.49E-03,  avg # of iterations =  4.2

     negative rho (up, down):  4.886E-04 3.049E-04
 
     Adding external electric field

     Computed dipole along edir(3) : 
        Dipole               -0.4667 Ry au,         -1.1863 Debye
        Dipole field         -0.0006 Ry au
 
        Potential amp.        0.0397 Ry
        Total length         34.5908 bohr
 
 
     Adding external electric field

     Computed dipole along edir(3) : 
        Dipole               -0.4667 Ry au,         -1.1863 Debye
        Dipole field         -0.0006 Ry au
 
        Potential amp.        0.0397 Ry
        Total length         34.5908 bohr
 
 
     Magnetic moment per site:
     atom:    1    charge:    3.9963    magn:    0.9503    constr:    0.0000
     atom:    2    charge:    3.9694    magn:    0.9542    constr:    0.0000
     atom:    3    charge:    3.9686    magn:    0.9581    constr:    0.0000
     atom:    4    charge:    3.9861    magn:    0.9631    constr:    0.0000
     atom:    5    charge:    3.9963    magn:    0.9503    constr:    0.0000
     atom:    6    charge:    3.9696    magn:    0.9483    constr:    0.0000
     atom:    7    charge:    3.9686    magn:    0.9582    constr:    0.0000
     atom:    8    charge:    3.9632    magn:    0.9978    constr:    0.0000
     atom:    9    charge:    3.9975    magn:    0.9480    constr:    0.0000
     atom:   10    charge:    3.9694    magn:    0.9542    constr:    0.0000
     atom:   11    charge:    3.9690    magn:    0.9559    constr:    0.0000
     atom:   12    charge:    3.9861    magn:    0.9631    constr:    0.0000
     atom:   13    charge:    3.9975    magn:    0.9480    constr:    0.0000
     atom:   14    charge:    3.9722    magn:    0.9523    constr:    0.0000
     atom:   15    charge:    3.9690    magn:    0.9558    constr:    0.0000
     atom:   16    charge:    3.9946    magn:    0.9535    constr:    0.0000
     atom:   17    charge:    3.9963    magn:    0.9503    constr:    0.0000
     atom:   18    charge:    3.9722    magn:    0.9523    constr:    0.0000
     atom:   19    charge:    3.9686    magn:    0.9582    constr:    0.0000
     atom:   20    charge:    3.9946    magn:    0.9535    constr:    0.0000
     atom:   21    charge:    3.9963    magn:    0.9503    constr:    0.0000
     atom:   22    charge:    3.9717    magn:    0.9526    constr:    0.0000
     atom:   23    charge:    3.9686    magn:    0.9581    constr:    0.0000
     atom:   24    charge:    3.9932    magn:    0.9548    constr:    0.0000
     atom:   25    charge:    3.9989    magn:    0.9473    constr:    0.0000
     atom:   26    charge:    3.9717    magn:    0.9526    constr:    0.0000
     atom:   27    charge:    3.9716    magn:    0.9542    constr:    0.0000
     atom:   28    charge:    3.9932    magn:    0.9549    constr:    0.0000
     atom:   29    charge:    3.9994    magn:    0.9477    constr:    0.0000
     atom:   30    charge:    3.9721    magn:    0.9523    constr:    0.0000
     atom:   31    charge:    3.9720    magn:    0.9540    constr:    0.0000
     atom:   32    charge:    3.9946    magn:    0.9535    constr:    0.0000
     atom:   33    charge:    3.9989    magn:    0.9473    constr:    0.0000
     atom:   34    charge:    3.9721    magn:    0.9523    constr:    0.0000
     atom:   35    charge:    3.9716    magn:    0.9542    constr:    0.0000
     atom:   36    charge:    3.9946    magn:    0.9535    constr:    0.0000
     atom:   37    charge:    2.0480    magn:    0.8137    constr:    0.0000

     total cpu time spent up to now is      707.6 secs

     total energy              =   -3654.69289885 Ry
     Harris-Foulkes estimate   =   -3654.76975182 Ry
     estimated scf accuracy    <       4.42545952 Ry

     total magnetization       =    38.65 Bohr mag/cell
     absolute magnetization    =    39.05 Bohr mag/cell

     iteration #  6     ecut=    44.10 Ry     beta=0.10
     Davidson diagonalization with overlap
     ethr =  1.21E-03,  avg # of iterations =  1.4

     negative rho (up, down):  4.816E-04 3.043E-04
 
     Adding external electric field

     Computed dipole along edir(3) : 
        Dipole               -0.5642 Ry au,         -1.4341 Debye
        Dipole field         -0.0007 Ry au
 
        Potential amp.        0.0481 Ry
        Total length         34.5908 bohr
 
 
     Adding external electric field

     Computed dipole along edir(3) : 
        Dipole               -0.5642 Ry au,         -1.4341 Debye
        Dipole field         -0.0007 Ry au
 
        Potential amp.        0.0481 Ry
        Total length         34.5908 bohr
 
 
     Magnetic moment per site:
     atom:    1    charge:    3.9977    magn:    0.9137    constr:    0.0000
     atom:    2    charge:    3.9704    magn:    0.9178    constr:    0.0000
     atom:    3    charge:    3.9665    magn:    0.9248    constr:    0.0000
     atom:    4    charge:    3.9921    magn:    0.9246    constr:    0.0000
     atom:    5    charge:    3.9977    magn:    0.9137    constr:    0.0000
     atom:    6    charge:    3.9687    magn:    0.9121    constr:    0.0000
     atom:    7    charge:    3.9665    magn:    0.9248    constr:    0.0000
     atom:    8    charge:    3.9553    magn:    0.9737    constr:    0.0000
     atom:    9    charge:    3.9991    magn:    0.9108    constr:    0.0000
     atom:   10    charge:    3.9704    magn:    0.9178    constr:    0.0000
     atom:   11    charge:    3.9705    magn:    0.9192    constr:    0.0000
     atom:   12    charge:    3.9921    magn:    0.9246    constr:    0.0000
     atom:   13    charge:    3.9991    magn:    0.9108    constr:    0.0000
     atom:   14    charge:    3.9680    magn:    0.9204    constr:    0.0000
     atom:   15    charge:    3.9705    magn:    0.9192    constr:    0.0000
     atom:   16    charge:    3.9961    magn:    0.9173    constr:    0.0000
     atom:   17    charge:    3.9976    magn:    0.9137    constr:    0.0000
     atom:   18    charge:    3.9680    magn:    0.9205    constr:    0.0000
     atom:   19    charge:    3.9665    magn:    0.9248    constr:    0.0000
     atom:   20    charge:    3.9961    magn:    0.9173    constr:    0.0000
     atom:   21    charge:    3.9976    magn:    0.9137    constr:    0.0000
     atom:   22    charge:    3.9671    magn:    0.9210    constr:    0.0000
     atom:   23    charge:    3.9665    magn:    0.9248    constr:    0.0000
     atom:   24    charge:    3.9941    magn:    0.9194    constr:    0.0000
     atom:   25    charge:    3.9913    magn:    0.9184    constr:    0.0000
     atom:   26    charge:    3.9671    magn:    0.9210    constr:    0.0000
     atom:   27    charge:    3.9694    magn:    0.9211    constr:    0.0000
     atom:   28    charge:    3.9941    magn:    0.9194    constr:    0.0000
     atom:   29    charge:    3.9901    magn:    0.9202    constr:    0.0000
     atom:   30    charge:    3.9680    magn:    0.9204    constr:    0.0000
     atom:   31    charge:    3.9695    magn:    0.9211    constr:    0.0000
     atom:   32    charge:    3.9961    magn:    0.9173    constr:    0.0000
     atom:   33    charge:    3.9913    magn:    0.9184    constr:    0.0000
     atom:   34    charge:    3.9680    magn:    0.9204    constr:    0.0000
     atom:   35    charge:    3.9694    magn:    0.9211    constr:    0.0000
     atom:   36    charge:    3.9961    magn:    0.9173    constr:    0.0000
     atom:   37    charge:    2.0498    magn:    0.7836    constr:    0.0000

     total cpu time spent up to now is      818.9 secs

     total energy              =   -3654.85217050 Ry
     Harris-Foulkes estimate   =   -3654.85338737 Ry
     estimated scf accuracy    <       4.97876516 Ry

     total magnetization       =    38.62 Bohr mag/cell
     absolute magnetization    =    39.13 Bohr mag/cell

     iteration #  7     ecut=    44.10 Ry     beta=0.10
     Davidson diagonalization with overlap
     ethr =  1.21E-03,  avg # of iterations =  1.0

     negative rho (up, down):  4.727E-04 3.001E-04
 
     Adding external electric field

     Computed dipole along edir(3) : 
        Dipole               -0.4797 Ry au,         -1.2192 Debye
        Dipole field         -0.0006 Ry au
 
        Potential amp.        0.0409 Ry
        Total length         34.5908 bohr
 
 
     Adding external electric field

     Computed dipole along edir(3) : 
        Dipole               -0.4797 Ry au,         -1.2192 Debye
        Dipole field         -0.0006 Ry au
 
        Potential amp.        0.0409 Ry
        Total length         34.5908 bohr
 
 
     Magnetic moment per site:
     atom:    1    charge:    3.9938    magn:    0.8746    constr:    0.0000
     atom:    2    charge:    3.9659    magn:    0.8795    constr:    0.0000
     atom:    3    charge:    3.9669    magn:    0.8834    constr:    0.0000
     atom:    4    charge:    3.9969    magn:    0.8804    constr:    0.0000
     atom:    5    charge:    3.9938    magn:    0.8746    constr:    0.0000
     atom:    6    charge:    3.9678    magn:    0.8692    constr:    0.0000
     atom:    7    charge:    3.9669    magn:    0.8834    constr:    0.0000
     atom:    8    charge:    3.9549    magn:    0.9394    constr:    0.0000
     atom:    9    charge:    3.9915    magn:    0.8746    constr:    0.0000
     atom:   10    charge:    3.9659    magn:    0.8795    constr:    0.0000
     atom:   11    charge:    3.9657    magn:    0.8813    constr:    0.0000
     atom:   12    charge:    3.9969    magn:    0.8804    constr:    0.0000
     atom:   13    charge:    3.9915    magn:    0.8746    constr:    0.0000
     atom:   14    charge:    3.9657    magn:    0.8807    constr:    0.0000
     atom:   15    charge:    3.9657    magn:    0.8812    constr:    0.0000
     atom:   16    charge:    3.9922    magn:    0.8788    constr:    0.0000
     atom:   17    charge:    3.9938    magn:    0.8746    constr:    0.0000
     atom:   18    charge:    3.9657    magn:    0.8807    constr:    0.0000
     atom:   19    charge:    3.9669    magn:    0.8834    constr:    0.0000
     atom:   20    charge:    3.9922    magn:    0.8788    constr:    0.0000
     atom:   21    charge:    3.9939    magn:    0.8746    constr:    0.0000
     atom:   22    charge:    3.9668    magn:    0.8795    constr:    0.0000
     atom:   23    charge:    3.9669    magn:    0.8834    constr:    0.0000
     atom:   24    charge:    3.9942    magn:    0.8777    constr:    0.0000
     atom:   25    charge:    3.9948    magn:    0.8730    constr:    0.0000
     atom:   26    charge:    3.9668    magn:    0.8795    constr:    0.0000
     atom:   27    charge:    3.9673    magn:    0.8813    constr:    0.0000
     atom:   28    charge:    3.9942    magn:    0.8777    constr:    0.0000
     atom:   29    charge:    3.9932    magn:    0.8756    constr:    0.0000
     atom:   30    charge:    3.9657    magn:    0.8806    constr:    0.0000
     atom:   31    charge:    3.9657    magn:    0.8826    constr:    0.0000
     atom:   32    charge:    3.9922    magn:    0.8788    constr:    0.0000
     atom:   33    charge:    3.9948    magn:    0.8730    constr:    0.0000
     atom:   34    charge:    3.9657    magn:    0.8807    constr:    0.0000
     atom:   35    charge:    3.9672    magn:    0.8812    constr:    0.0000
     atom:   36    charge:    3.9922    magn:    0.8788    constr:    0.0000
     atom:   37    charge:    2.0504    magn:    0.7483    constr:    0.0000

     total cpu time spent up to now is      928.0 secs

     total energy              =   -3655.02000673 Ry
     Harris-Foulkes estimate   =   -3654.95678039 Ry
     estimated scf accuracy    <       2.44282672 Ry

     total magnetization       =    37.92 Bohr mag/cell
     absolute magnetization    =    38.61 Bohr mag/cell

     iteration #  8     ecut=    44.10 Ry     beta=0.10
     Davidson diagonalization with overlap
     ethr =  6.67E-04,  avg # of iterations =  2.9

     negative rho (up, down):  4.611E-04 2.942E-04
 
     Adding external electric field

     Computed dipole along edir(3) : 
        Dipole               -0.4676 Ry au,         -1.1885 Debye
        Dipole field         -0.0006 Ry au
 
        Potential amp.        0.0398 Ry
        Total length         34.5908 bohr
 
 
     Adding external electric field

     Computed dipole along edir(3) : 
        Dipole               -0.4676 Ry au,         -1.1885 Debye
        Dipole field         -0.0006 Ry au
 
        Potential amp.        0.0398 Ry
        Total length         34.5908 bohr
 
 
     Magnetic moment per site:
     atom:    1    charge:    3.9883    magn:    0.8110    constr:    0.0000
     atom:    2    charge:    3.9639    magn:    0.8139    constr:    0.0000
     atom:    3    charge:    3.9675    magn:    0.8167    constr:    0.0000
     atom:    4    charge:    3.9892    magn:    0.8215    constr:    0.0000
     atom:    5    charge:    3.9883    magn:    0.8110    constr:    0.0000
     atom:    6    charge:    3.9652    magn:    0.8010    constr:    0.0000
     atom:    7    charge:    3.9675    magn:    0.8167    constr:    0.0000
     atom:    8    charge:    3.9606    magn:    0.8801    constr:    0.0000
     atom:    9    charge:    3.9910    magn:    0.8064    constr:    0.0000
     atom:   10    charge:    3.9639    magn:    0.8139    constr:    0.0000
     atom:   11    charge:    3.9636    magn:    0.8159    constr:    0.0000
     atom:   12    charge:    3.9892    magn:    0.8215    constr:    0.0000
     atom:   13    charge:    3.9909    magn:    0.8065    constr:    0.0000
     atom:   14    charge:    3.9642    magn:    0.8152    constr:    0.0000
     atom:   15    charge:    3.9636    magn:    0.8159    constr:    0.0000
     atom:   16    charge:    3.9929    magn:    0.8105    constr:    0.0000
     atom:   17    charge:    3.9883    magn:    0.8111    constr:    0.0000
     atom:   18    charge:    3.9642    magn:    0.8152    constr:    0.0000
     atom:   19    charge:    3.9675    magn:    0.8168    constr:    0.0000
     atom:   20    charge:    3.9929    magn:    0.8105    constr:    0.0000
     atom:   21    charge:    3.9883    magn:    0.8111    constr:    0.0000
     atom:   22    charge:    3.9630    magn:    0.8157    constr:    0.0000
     atom:   23    charge:    3.9675    magn:    0.8167    constr:    0.0000
     atom:   24    charge:    3.9912    magn:    0.8128    constr:    0.0000
     atom:   25    charge:    3.9874    magn:    0.8113    constr:    0.0000
     atom:   26    charge:    3.9630    magn:    0.8157    constr:    0.0000
     atom:   27    charge:    3.9627    magn:    0.8182    constr:    0.0000
     atom:   28    charge:    3.9912    magn:    0.8128    constr:    0.0000
     atom:   29    charge:    3.9916    magn:    0.8093    constr:    0.0000
     atom:   30    charge:    3.9643    magn:    0.8152    constr:    0.0000
     atom:   31    charge:    3.9647    magn:    0.8168    constr:    0.0000
     atom:   32    charge:    3.9929    magn:    0.8105    constr:    0.0000
     atom:   33    charge:    3.9874    magn:    0.8112    constr:    0.0000
     atom:   34    charge:    3.9643    magn:    0.8152    constr:    0.0000
     atom:   35    charge:    3.9627    magn:    0.8182    constr:    0.0000
     atom:   36    charge:    3.9929    magn:    0.8105    constr:    0.0000
     atom:   37    charge:    2.0499    magn:    0.6912    constr:    0.0000

     total cpu time spent up to now is     1046.5 secs

     total energy              =   -3655.23088866 Ry
     Harris-Foulkes estimate   =   -3655.07384908 Ry
     estimated scf accuracy    <       1.26723076 Ry

     total magnetization       =    37.06 Bohr mag/cell
     absolute magnetization    =    37.98 Bohr mag/cell

     iteration #  9     ecut=    44.10 Ry     beta=0.10
     Davidson diagonalization with overlap
     ethr =  3.46E-04,  avg # of iterations =  7.1

     negative rho (up, down):  4.609E-04 3.423E-04
 
     Adding external electric field

     Computed dipole along edir(3) : 
        Dipole               -0.4320 Ry au,         -1.0980 Debye
        Dipole field         -0.0005 Ry au
 
        Potential amp.        0.0368 Ry
        Total length         34.5908 bohr
 
 
     Adding external electric field

     Computed dipole along edir(3) : 
        Dipole               -0.4320 Ry au,         -1.0980 Debye
        Dipole field         -0.0005 Ry au
 
        Potential amp.        0.0368 Ry
        Total length         34.5908 bohr
 
 
     Magnetic moment per site:
     atom:    1    charge:    3.9841    magn:    0.6950    constr:    0.0000
     atom:    2    charge:    3.9648    magn:    0.6943    constr:    0.0000
     atom:    3    charge:    3.9640    magn:    0.7019    constr:    0.0000
     atom:    4    charge:    3.9910    magn:    0.7038    constr:    0.0000
     atom:    5    charge:    3.9841    magn:    0.6950    constr:    0.0000
     atom:    6    charge:    3.9600    magn:    0.6802    constr:    0.0000
     atom:    7    charge:    3.9640    magn:    0.7020    constr:    0.0000
     atom:    8    charge:    3.9632    magn:    0.7789    constr:    0.0000
     atom:    9    charge:    3.9857    magn:    0.6898    constr:    0.0000
     atom:   10    charge:    3.9648    magn:    0.6943    constr:    0.0000
     atom:   11    charge:    3.9659    magn:    0.6956    constr:    0.0000
     atom:   12    charge:    3.9910    magn:    0.7038    constr:    0.0000
     atom:   13    charge:    3.9859    magn:    0.6897    constr:    0.0000
     atom:   14    charge:    3.9637    magn:    0.6979    constr:    0.0000
     atom:   15    charge:    3.9660    magn:    0.6955    constr:    0.0000
     atom:   16    charge:    3.9869    magn:    0.6954    constr:    0.0000
     atom:   17    charge:    3.9842    magn:    0.6949    constr:    0.0000
     atom:   18    charge:    3.9636    magn:    0.6979    constr:    0.0000
     atom:   19    charge:    3.9641    magn:    0.7019    constr:    0.0000
     atom:   20    charge:    3.9869    magn:    0.6955    constr:    0.0000
     atom:   21    charge:    3.9842    magn:    0.6949    constr:    0.0000
     atom:   22    charge:    3.9652    magn:    0.6958    constr:    0.0000
     atom:   23    charge:    3.9641    magn:    0.7018    constr:    0.0000
     atom:   24    charge:    3.9880    magn:    0.6961    constr:    0.0000
     atom:   25    charge:    3.9858    magn:    0.6927    constr:    0.0000
     atom:   26    charge:    3.9651    magn:    0.6959    constr:    0.0000
     atom:   27    charge:    3.9663    magn:    0.6977    constr:    0.0000
     atom:   28    charge:    3.9878    magn:    0.6962    constr:    0.0000
     atom:   29    charge:    3.9780    magn:    0.7013    constr:    0.0000
     atom:   30    charge:    3.9635    magn:    0.6980    constr:    0.0000
     atom:   31    charge:    3.9638    magn:    0.7001    constr:    0.0000
     atom:   32    charge:    3.9867    magn:    0.6956    constr:    0.0000
     atom:   33    charge:    3.9858    magn:    0.6927    constr:    0.0000
     atom:   34    charge:    3.9635    magn:    0.6980    constr:    0.0000
     atom:   35    charge:    3.9662    magn:    0.6977    constr:    0.0000
     atom:   36    charge:    3.9868    magn:    0.6956    constr:    0.0000
     atom:   37    charge:    2.0481    magn:    0.5881    constr:    0.0000

     total cpu time spent up to now is     1184.9 secs

     total energy              =   -3655.49316483 Ry
     Harris-Foulkes estimate   =   -3655.26970318 Ry
     estimated scf accuracy    <       1.08244169 Ry

     total magnetization       =    35.67 Bohr mag/cell
     absolute magnetization    =    36.97 Bohr mag/cell

     iteration # 10     ecut=    44.10 Ry     beta=0.10
     Davidson diagonalization with overlap
     ethr =  2.96E-04,  avg # of iterations =  6.4

     negative rho (up, down):  4.860E-04 4.572E-04
 
     Adding external electric field

     Computed dipole along edir(3) : 
        Dipole               -0.4277 Ry au,         -1.0870 Debye
        Dipole field         -0.0005 Ry au
 
        Potential amp.        0.0364 Ry
        Total length         34.5908 bohr
 
 
     Adding external electric field

     Computed dipole along edir(3) : 
        Dipole               -0.4277 Ry au,         -1.0870 Debye
        Dipole field         -0.0005 Ry au
 
        Potential amp.        0.0364 Ry
        Total length         34.5908 bohr
 
 
     Magnetic moment per site:
     atom:    1    charge:    3.9837    magn:    0.5732    constr:    0.0000
     atom:    2    charge:    3.9647    magn:    0.5723    constr:    0.0000
     atom:    3    charge:    3.9669    magn:    0.5793    constr:    0.0000
     atom:    4    charge:    3.9915    magn:    0.5837    constr:    0.0000
     atom:    5    charge:    3.9837    magn:    0.5732    constr:    0.0000
     atom:    6    charge:    3.9642    magn:    0.5492    constr:    0.0000
     atom:    7    charge:    3.9669    magn:    0.5793    constr:    0.0000
     atom:    8    charge:    3.9549    magn:    0.6806    constr:    0.0000
     atom:    9    charge:    3.9798    magn:    0.5711    constr:    0.0000
     atom:   10    charge:    3.9647    magn:    0.5723    constr:    0.0000
     atom:   11    charge:    3.9660    magn:    0.5735    constr:    0.0000
     atom:   12    charge:    3.9915    magn:    0.5837    constr:    0.0000
     atom:   13    charge:    3.9789    magn:    0.5718    constr:    0.0000
     atom:   14    charge:    3.9650    magn:    0.5759    constr:    0.0000
     atom:   15    charge:    3.9655    magn:    0.5740    constr:    0.0000
     atom:   16    charge:    3.9842    magn:    0.5744    constr:    0.0000
     atom:   17    charge:    3.9831    magn:    0.5738    constr:    0.0000
     atom:   18    charge:    3.9650    magn:    0.5759    constr:    0.0000
     atom:   19    charge:    3.9664    magn:    0.5797    constr:    0.0000
     atom:   20    charge:    3.9842    magn:    0.5744    constr:    0.0000
     atom:   21    charge:    3.9830    magn:    0.5738    constr:    0.0000
     atom:   22    charge:    3.9643    magn:    0.5754    constr:    0.0000
     atom:   23    charge:    3.9664    magn:    0.5797    constr:    0.0000
     atom:   24    charge:    3.9860    magn:    0.5749    constr:    0.0000
     atom:   25    charge:    3.9802    magn:    0.5748    constr:    0.0000
     atom:   26    charge:    3.9649    magn:    0.5749    constr:    0.0000
     atom:   27    charge:    3.9653    magn:    0.5773    constr:    0.0000
     atom:   28    charge:    3.9867    magn:    0.5743    constr:    0.0000
     atom:   29    charge:    3.9827    magn:    0.5763    constr:    0.0000
     atom:   30    charge:    3.9655    magn:    0.5754    constr:    0.0000
     atom:   31    charge:    3.9665    magn:    0.5774    constr:    0.0000
     atom:   32    charge:    3.9849    magn:    0.5738    constr:    0.0000
     atom:   33    charge:    3.9802    magn:    0.5748    constr:    0.0000
     atom:   34    charge:    3.9655    magn:    0.5755    constr:    0.0000
     atom:   35    charge:    3.9653    magn:    0.5773    constr:    0.0000
     atom:   36    charge:    3.9848    magn:    0.5738    constr:    0.0000
     atom:   37    charge:    2.0431    magn:    0.4807    constr:    0.0000

     total cpu time spent up to now is     1320.3 secs

     total energy              =   -3655.66973778 Ry
     Harris-Foulkes estimate   =   -3655.54050136 Ry
     estimated scf accuracy    <       0.66971754 Ry

     total magnetization       =    33.00 Bohr mag/cell
     absolute magnetization    =    35.12 Bohr mag/cell

     iteration # 11     ecut=    44.10 Ry     beta=0.10
     Davidson diagonalization with overlap
     ethr =  1.83E-04,  avg # of iterations =  6.8

     negative rho (up, down):  4.817E-04 4.623E-04
 
     Adding external electric field

     Computed dipole along edir(3) : 
        Dipole               -0.4424 Ry au,         -1.1244 Debye
        Dipole field         -0.0005 Ry au
 
        Potential amp.        0.0377 Ry
        Total length         34.5908 bohr
 
 
     Adding external electric field

     Computed dipole along edir(3) : 
        Dipole               -0.4424 Ry au,         -1.1244 Debye
        Dipole field         -0.0005 Ry au
 
        Potential amp.        0.0377 Ry
        Total length         34.5908 bohr
 
 
     Magnetic moment per site:
     atom:    1    charge:    3.9811    magn:    0.5420    constr:    0.0000
     atom:    2    charge:    3.9661    magn:    0.5374    constr:    0.0000
     atom:    3    charge:    3.9680    magn:    0.5454    constr:    0.0000
     atom:    4    charge:    3.9912    magn:    0.5506    constr:    0.0000
     atom:    5    charge:    3.9811    magn:    0.5420    constr:    0.0000
     atom:    6    charge:    3.9652    magn:    0.5126    constr:    0.0000
     atom:    7    charge:    3.9680    magn:    0.5454    constr:    0.0000
     atom:    8    charge:    3.9526    magn:    0.6534    constr:    0.0000
     atom:    9    charge:    3.9816    magn:    0.5362    constr:    0.0000
     atom:   10    charge:    3.9661    magn:    0.5374    constr:    0.0000
     atom:   11    charge:    3.9659    magn:    0.5399    constr:    0.0000
     atom:   12    charge:    3.9912    magn:    0.5506    constr:    0.0000
     atom:   13    charge:    3.9826    magn:    0.5354    constr:    0.0000
     atom:   14    charge:    3.9664    magn:    0.5413    constr:    0.0000
     atom:   15    charge:    3.9670    magn:    0.5390    constr:    0.0000
     atom:   16    charge:    3.9850    magn:    0.5396    constr:    0.0000
     atom:   17    charge:    3.9828    magn:    0.5406    constr:    0.0000
     atom:   18    charge:    3.9664    magn:    0.5413    constr:    0.0000
     atom:   19    charge:    3.9691    magn:    0.5445    constr:    0.0000
     atom:   20    charge:    3.9850    magn:    0.5396    constr:    0.0000
     atom:   21    charge:    3.9828    magn:    0.5406    constr:    0.0000
     atom:   22    charge:    3.9666    magn:    0.5402    constr:    0.0000
     atom:   23    charge:    3.9691    magn:    0.5445    constr:    0.0000
     atom:   24    charge:    3.9870    magn:    0.5400    constr:    0.0000
     atom:   25    charge:    3.9822    magn:    0.5398    constr:    0.0000
     atom:   26    charge:    3.9655    magn:    0.5411    constr:    0.0000
     atom:   27    charge:    3.9661    magn:    0.5431    constr:    0.0000
     atom:   28    charge:    3.9857    magn:    0.5411    constr:    0.0000
     atom:   29    charge:    3.9823    magn:    0.5433    constr:    0.0000
     atom:   30    charge:    3.9652    magn:    0.5422    constr:    0.0000
     atom:   31    charge:    3.9657    magn:    0.5446    constr:    0.0000
     atom:   32    charge:    3.9837    magn:    0.5407    constr:    0.0000
     atom:   33    charge:    3.9822    magn:    0.5398    constr:    0.0000
     atom:   34    charge:    3.9652    magn:    0.5422    constr:    0.0000
     atom:   35    charge:    3.9661    magn:    0.5431    constr:    0.0000
     atom:   36    charge:    3.9837    magn:    0.5407    constr:    0.0000
     atom:   37    charge:    2.0393    magn:    0.4505    constr:    0.0000

     total cpu time spent up to now is     1459.5 secs

     total energy              =   -3655.71972268 Ry
     Harris-Foulkes estimate   =   -3655.70957781 Ry
     estimated scf accuracy    <       0.47831522 Ry

     total magnetization       =    29.45 Bohr mag/cell
     absolute magnetization    =    32.72 Bohr mag/cell

     iteration # 12     ecut=    44.10 Ry     beta=0.10
     Davidson diagonalization with overlap
     ethr =  1.31E-04,  avg # of iterations =  1.1

     negative rho (up, down):  4.651E-04 4.276E-04
 
     Adding external electric field

     Computed dipole along edir(3) : 
        Dipole               -0.4486 Ry au,         -1.1403 Debye
        Dipole field         -0.0006 Ry au
 
        Potential amp.        0.0382 Ry
        Total length         34.5908 bohr
 
 
     Adding external electric field

     Computed dipole along edir(3) : 
        Dipole               -0.4486 Ry au,         -1.1403 Debye
        Dipole field         -0.0006 Ry au
 
        Potential amp.        0.0382 Ry
        Total length         34.5908 bohr
 
 
     Magnetic moment per site:
     atom:    1    charge:    3.9807    magn:    0.5380    constr:    0.0000
     atom:    2    charge:    3.9662    magn:    0.5330    constr:    0.0000
     atom:    3    charge:    3.9693    magn:    0.5403    constr:    0.0000
     atom:    4    charge:    3.9903    magn:    0.5467    constr:    0.0000
     atom:    5    charge:    3.9807    magn:    0.5380    constr:    0.0000
     atom:    6    charge:    3.9649    magn:    0.5079    constr:    0.0000
     atom:    7    charge:    3.9693    magn:    0.5403    constr:    0.0000
     atom:    8    charge:    3.9518    magn:    0.6505    constr:    0.0000
     atom:    9    charge:    3.9839    magn:    0.5302    constr:    0.0000
     atom:   10    charge:    3.9662    magn:    0.5330    constr:    0.0000
     atom:   11    charge:    3.9665    magn:    0.5351    constr:    0.0000
     atom:   12    charge:    3.9903    magn:    0.5467    constr:    0.0000
     atom:   13    charge:    3.9829    magn:    0.5312    constr:    0.0000
     atom:   14    charge:    3.9651    magn:    0.5380    constr:    0.0000
     atom:   15    charge:    3.9657    magn:    0.5357    constr:    0.0000
     atom:   16    charge:    3.9838    magn:    0.5360    constr:    0.0000
     atom:   17    charge:    3.9797    magn:    0.5388    constr:    0.0000
     atom:   18    charge:    3.9651    magn:    0.5381    constr:    0.0000
     atom:   19    charge:    3.9685    magn:    0.5410    constr:    0.0000
     atom:   20    charge:    3.9838    magn:    0.5360    constr:    0.0000
     atom:   21    charge:    3.9797    magn:    0.5388    constr:    0.0000
     atom:   22    charge:    3.9658    magn:    0.5367    constr:    0.0000
     atom:   23    charge:    3.9685    magn:    0.5410    constr:    0.0000
     atom:   24    charge:    3.9851    magn:    0.5369    constr:    0.0000
     atom:   25    charge:    3.9826    magn:    0.5353    constr:    0.0000
     atom:   26    charge:    3.9667    magn:    0.5360    constr:    0.0000
     atom:   27    charge:    3.9664    magn:    0.5386    constr:    0.0000
     atom:   28    charge:    3.9861    magn:    0.5360    constr:    0.0000
     atom:   29    charge:    3.9807    magn:    0.5401    constr:    0.0000
     atom:   30    charge:    3.9659    magn:    0.5375    constr:    0.0000
     atom:   31    charge:    3.9652    magn:    0.5409    constr:    0.0000
     atom:   32    charge:    3.9846    magn:    0.5352    constr:    0.0000
     atom:   33    charge:    3.9826    magn:    0.5353    constr:    0.0000
     atom:   34    charge:    3.9659    magn:    0.5375    constr:    0.0000
     atom:   35    charge:    3.9664    magn:    0.5386    constr:    0.0000
     atom:   36    charge:    3.9847    magn:    0.5352    constr:    0.0000
     atom:   37    charge:    2.0355    magn:    0.4465    constr:    0.0000

     total cpu time spent up to now is     1569.6 secs

     total energy              =   -3655.71381049 Ry
     Harris-Foulkes estimate   =   -3655.73572635 Ry
     estimated scf accuracy    <       0.61989209 Ry

     total magnetization       =    28.52 Bohr mag/cell
     absolute magnetization    =    32.10 Bohr mag/cell

     iteration # 13     ecut=    44.10 Ry     beta=0.10
     Davidson diagonalization with overlap
     ethr =  1.31E-04,  avg # of iterations =  1.0

     negative rho (up, down):  4.660E-04 4.463E-04
 
     Adding external electric field

     Computed dipole along edir(3) : 
        Dipole               -0.4986 Ry au,         -1.2674 Debye
        Dipole field         -0.0006 Ry au
 
        Potential amp.        0.0425 Ry
        Total length         34.5908 bohr
 
 
     Adding external electric field

     Computed dipole along edir(3) : 
        Dipole               -0.4986 Ry au,         -1.2674 Debye
        Dipole field         -0.0006 Ry au
 
        Potential amp.        0.0425 Ry
        Total length         34.5908 bohr
 
 
     Magnetic moment per site:
     atom:    1    charge:    3.9820    magn:    0.4968    constr:    0.0000
     atom:    2    charge:    3.9673    magn:    0.4907    constr:    0.0000
     atom:    3    charge:    3.9691    magn:    0.4999    constr:    0.0000
     atom:    4    charge:    3.9895    magn:    0.5066    constr:    0.0000
     atom:    5    charge:    3.9820    magn:    0.4968    constr:    0.0000
     atom:    6    charge:    3.9659    magn:    0.4628    constr:    0.0000
     atom:    7    charge:    3.9691    magn:    0.4999    constr:    0.0000
     atom:    8    charge:    3.9551    magn:    0.6142    constr:    0.0000
     atom:    9    charge:    3.9810    magn:    0.4917    constr:    0.0000
     atom:   10    charge:    3.9673    magn:    0.4907    constr:    0.0000
     atom:   11    charge:    3.9674    magn:    0.4933    constr:    0.0000
     atom:   12    charge:    3.9895    magn:    0.5066    constr:    0.0000
     atom:   13    charge:    3.9819    magn:    0.4911    constr:    0.0000
     atom:   14    charge:    3.9677    magn:    0.4953    constr:    0.0000
     atom:   15    charge:    3.9673    magn:    0.4933    constr:    0.0000
     atom:   16    charge:    3.9835    magn:    0.4945    constr:    0.0000
     atom:   17    charge:    3.9817    magn:    0.4971    constr:    0.0000
     atom:   18    charge:    3.9677    magn:    0.4953    constr:    0.0000
     atom:   19    charge:    3.9692    magn:    0.4998    constr:    0.0000
     atom:   20    charge:    3.9835    magn:    0.4945    constr:    0.0000
     atom:   21    charge:    3.9817    magn:    0.4971    constr:    0.0000
     atom:   22    charge:    3.9681    magn:    0.4942    constr:    0.0000
     atom:   23    charge:    3.9691    magn:    0.4998    constr:    0.0000
     atom:   24    charge:    3.9841    magn:    0.4960    constr:    0.0000
     atom:   25    charge:    3.9814    magn:    0.4955    constr:    0.0000
     atom:   26    charge:    3.9681    magn:    0.4941    constr:    0.0000
     atom:   27    charge:    3.9682    magn:    0.4962    constr:    0.0000
     atom:   28    charge:    3.9837    magn:    0.4963    constr:    0.0000
     atom:   29    charge:    3.9817    magn:    0.4985    constr:    0.0000
     atom:   30    charge:    3.9678    magn:    0.4952    constr:    0.0000
     atom:   31    charge:    3.9683    magn:    0.4981    constr:    0.0000
     atom:   32    charge:    3.9831    magn:    0.4947    constr:    0.0000
     atom:   33    charge:    3.9814    magn:    0.4955    constr:    0.0000
     atom:   34    charge:    3.9678    magn:    0.4953    constr:    0.0000
     atom:   35    charge:    3.9682    magn:    0.4962    constr:    0.0000
     atom:   36    charge:    3.9831    magn:    0.4947    constr:    0.0000
     atom:   37    charge:    2.0298    magn:    0.4087    constr:    0.0000

     total cpu time spent up to now is     1679.5 secs

     total energy              =   -3655.73737821 Ry
     Harris-Foulkes estimate   =   -3655.73116447 Ry
     estimated scf accuracy    <       0.35197439 Ry

     total magnetization       =    28.34 Bohr mag/cell
     absolute magnetization    =    31.95 Bohr mag/cell

     iteration # 14     ecut=    44.10 Ry     beta=0.10
     Davidson diagonalization with overlap
     ethr =  9.62E-05,  avg # of iterations =  1.0

     negative rho (up, down):  4.720E-04 4.708E-04
 
     Adding external electric field

     Computed dipole along edir(3) : 
        Dipole               -0.5612 Ry au,         -1.4265 Debye
        Dipole field         -0.0007 Ry au
 
        Potential amp.        0.0478 Ry
        Total length         34.5908 bohr
 
 
     Adding external electric field

     Computed dipole along edir(3) : 
        Dipole               -0.5612 Ry au,         -1.4265 Debye
        Dipole field         -0.0007 Ry au
 
        Potential amp.        0.0478 Ry
        Total length         34.5908 bohr
 
 
     Magnetic moment per site:
     atom:    1    charge:    3.9822    magn:    0.4513    constr:    0.0000
     atom:    2    charge:    3.9724    magn:    0.4380    constr:    0.0000
     atom:    3    charge:    3.9717    magn:    0.4505    constr:    0.0000
     atom:    4    charge:    3.9885    magn:    0.4602    constr:    0.0000
     atom:    5    charge:    3.9823    magn:    0.4512    constr:    0.0000
     atom:    6    charge:    3.9697    magn:    0.4072    constr:    0.0000
     atom:    7    charge:    3.9717    magn:    0.4505    constr:    0.0000
     atom:    8    charge:    3.9546    magn:    0.5745    constr:    0.0000
     atom:    9    charge:    3.9851    magn:    0.4426    constr:    0.0000
     atom:   10    charge:    3.9724    magn:    0.4380    constr:    0.0000
     atom:   11    charge:    3.9723    magn:    0.4412    constr:    0.0000
     atom:   12    charge:    3.9886    magn:    0.4602    constr:    0.0000
     atom:   13    charge:    3.9835    magn:    0.4437    constr:    0.0000
     atom:   14    charge:    3.9727    magn:    0.4433    constr:    0.0000
     atom:   15    charge:    3.9721    magn:    0.4415    constr:    0.0000
     atom:   16    charge:    3.9822    magn:    0.4475    constr:    0.0000
     atom:   17    charge:    3.9837    magn:    0.4503    constr:    0.0000
     atom:   18    charge:    3.9727    magn:    0.4433    constr:    0.0000
     atom:   19    charge:    3.9719    magn:    0.4504    constr:    0.0000
     atom:   20    charge:    3.9822    magn:    0.4476    constr:    0.0000
     atom:   21    charge:    3.9838    magn:    0.4502    constr:    0.0000
     atom:   22    charge:    3.9719    magn:    0.4430    constr:    0.0000
     atom:   23    charge:    3.9719    magn:    0.4503    constr:    0.0000
     atom:   24    charge:    3.9848    magn:    0.4477    constr:    0.0000
     atom:   25    charge:    3.9838    magn:    0.4474    constr:    0.0000
     atom:   26    charge:    3.9713    magn:    0.4433    constr:    0.0000
     atom:   27    charge:    3.9712    magn:    0.4451    constr:    0.0000
     atom:   28    charge:    3.9856    magn:    0.4471    constr:    0.0000
     atom:   29    charge:    3.9857    magn:    0.4485    constr:    0.0000
     atom:   30    charge:    3.9725    magn:    0.4433    constr:    0.0000
     atom:   31    charge:    3.9719    magn:    0.4475    constr:    0.0000
     atom:   32    charge:    3.9832    magn:    0.4468    constr:    0.0000
     atom:   33    charge:    3.9837    magn:    0.4474    constr:    0.0000
     atom:   34    charge:    3.9725    magn:    0.4433    constr:    0.0000
     atom:   35    charge:    3.9712    magn:    0.4451    constr:    0.0000
     atom:   36    charge:    3.9832    magn:    0.4469    constr:    0.0000
     atom:   37    charge:    2.0214    magn:    0.3617    constr:    0.0000

     total cpu time spent up to now is     1789.2 secs

     total energy              =   -3655.74520002 Ry
     Harris-Foulkes estimate   =   -3655.74647251 Ry
     estimated scf accuracy    <       0.09091054 Ry

     total magnetization       =    27.19 Bohr mag/cell
     absolute magnetization    =    31.15 Bohr mag/cell

     iteration # 15     ecut=    44.10 Ry     beta=0.10
     Davidson diagonalization with overlap
     ethr =  2.48E-05,  avg # of iterations =  4.2

     negative rho (up, down):  4.618E-04 4.519E-04
 
     Adding external electric field

     Computed dipole along edir(3) : 
        Dipole               -0.6106 Ry au,         -1.5519 Debye
        Dipole field         -0.0008 Ry au
 
        Potential amp.        0.0520 Ry
        Total length         34.5908 bohr
 
 
     Adding external electric field

     Computed dipole along edir(3) : 
        Dipole               -0.6106 Ry au,         -1.5519 Debye
        Dipole field         -0.0008 Ry au
 
        Potential amp.        0.0520 Ry
        Total length         34.5908 bohr
 
 
     Magnetic moment per site:
     atom:    1    charge:    3.9836    magn:    0.4415    constr:    0.0000
     atom:    2    charge:    3.9729    magn:    0.4273    constr:    0.0000
     atom:    3    charge:    3.9734    magn:    0.4397    constr:    0.0000
     atom:    4    charge:    3.9878    magn:    0.4515    constr:    0.0000
     atom:    5    charge:    3.9836    magn:    0.4415    constr:    0.0000
     atom:    6    charge:    3.9715    magn:    0.3947    constr:    0.0000
     atom:    7    charge:    3.9734    magn:    0.4397    constr:    0.0000
     atom:    8    charge:    3.9539    magn:    0.5669    constr:    0.0000
     atom:    9    charge:    3.9840    magn:    0.4346    constr:    0.0000
     atom:   10    charge:    3.9729    magn:    0.4273    constr:    0.0000
     atom:   11    charge:    3.9723    magn:    0.4313    constr:    0.0000
     atom:   12    charge:    3.9878    magn:    0.4515    constr:    0.0000
     atom:   13    charge:    3.9837    magn:    0.4348    constr:    0.0000
     atom:   14    charge:    3.9734    magn:    0.4326    constr:    0.0000
     atom:   15    charge:    3.9725    magn:    0.4312    constr:    0.0000
     atom:   16    charge:    3.9835    magn:    0.4372    constr:    0.0000
     atom:   17    charge:    3.9832    magn:    0.4418    constr:    0.0000
     atom:   18    charge:    3.9734    magn:    0.4326    constr:    0.0000
     atom:   19    charge:    3.9734    magn:    0.4397    constr:    0.0000
     atom:   20    charge:    3.9836    magn:    0.4371    constr:    0.0000
     atom:   21    charge:    3.9832    magn:    0.4419    constr:    0.0000
     atom:   22    charge:    3.9732    magn:    0.4320    constr:    0.0000
     atom:   23    charge:    3.9734    magn:    0.4397    constr:    0.0000
     atom:   24    charge:    3.9849    magn:    0.4381    constr:    0.0000
     atom:   25    charge:    3.9844    magn:    0.4378    constr:    0.0000
     atom:   26    charge:    3.9734    magn:    0.4318    constr:    0.0000
     atom:   27    charge:    3.9729    magn:    0.4337    constr:    0.0000
     atom:   28    charge:    3.9847    magn:    0.4383    constr:    0.0000
     atom:   29    charge:    3.9840    magn:    0.4403    constr:    0.0000
     atom:   30    charge:    3.9733    magn:    0.4326    constr:    0.0000
     atom:   31    charge:    3.9731    magn:    0.4367    constr:    0.0000
     atom:   32    charge:    3.9833    magn:    0.4374    constr:    0.0000
     atom:   33    charge:    3.9845    magn:    0.4378    constr:    0.0000
     atom:   34    charge:    3.9733    magn:    0.4326    constr:    0.0000
     atom:   35    charge:    3.9730    magn:    0.4337    constr:    0.0000
     atom:   36    charge:    3.9833    magn:    0.4374    constr:    0.0000
     atom:   37    charge:    2.0192    magn:    0.3514    constr:    0.0000

     total cpu time spent up to now is     1913.5 secs

     total energy              =   -3655.74731779 Ry
     Harris-Foulkes estimate   =   -3655.75322470 Ry
     estimated scf accuracy    <       0.11310604 Ry

     total magnetization       =    26.14 Bohr mag/cell
     absolute magnetization    =    30.42 Bohr mag/cell

     iteration # 16     ecut=    44.10 Ry     beta=0.10
     Davidson diagonalization with overlap
     ethr =  2.48E-05,  avg # of iterations =  1.0

     negative rho (up, down):  4.488E-04 4.252E-04
 
     Adding external electric field

     Computed dipole along edir(3) : 
        Dipole               -0.5136 Ry au,         -1.3054 Debye
        Dipole field         -0.0006 Ry au
 
        Potential amp.        0.0437 Ry
        Total length         34.5908 bohr
 
 
     Adding external electric field

     Computed dipole along edir(3) : 
        Dipole               -0.5136 Ry au,         -1.3054 Debye
        Dipole field         -0.0006 Ry au
 
        Potential amp.        0.0437 Ry
        Total length         34.5908 bohr
 
 
     Magnetic moment per site:
     atom:    1    charge:    3.9839    magn:    0.4441    constr:    0.0000
     atom:    2    charge:    3.9718    magn:    0.4309    constr:    0.0000
     atom:    3    charge:    3.9733    magn:    0.4427    constr:    0.0000
     atom:    4    charge:    3.9883    magn:    0.4548    constr:    0.0000
     atom:    5    charge:    3.9839    magn:    0.4441    constr:    0.0000
     atom:    6    charge:    3.9708    magn:    0.3983    constr:    0.0000
     atom:    7    charge:    3.9733    magn:    0.4427    constr:    0.0000
     atom:    8    charge:    3.9546    magn:    0.5692    constr:    0.0000
     atom:    9    charge:    3.9840    magn:    0.4376    constr:    0.0000
     atom:   10    charge:    3.9717    magn:    0.4309    constr:    0.0000
     atom:   11    charge:    3.9706    magn:    0.4354    constr:    0.0000
     atom:   12    charge:    3.9883    magn:    0.4548    constr:    0.0000
     atom:   13    charge:    3.9850    magn:    0.4369    constr:    0.0000
     atom:   14    charge:    3.9717    magn:    0.4365    constr:    0.0000
     atom:   15    charge:    3.9707    magn:    0.4354    constr:    0.0000
     atom:   16    charge:    3.9837    magn:    0.4407    constr:    0.0000
     atom:   17    charge:    3.9832    magn:    0.4447    constr:    0.0000
     atom:   18    charge:    3.9717    magn:    0.4365    constr:    0.0000
     atom:   19    charge:    3.9731    magn:    0.4428    constr:    0.0000
     atom:   20    charge:    3.9837    magn:    0.4407    constr:    0.0000
     atom:   21    charge:    3.9832    magn:    0.4448    constr:    0.0000
     atom:   22    charge:    3.9720    magn:    0.4356    constr:    0.0000
     atom:   23    charge:    3.9730    magn:    0.4428    constr:    0.0000
     atom:   24    charge:    3.9835    magn:    0.4427    constr:    0.0000
     atom:   25    charge:    3.9842    magn:    0.4410    constr:    0.0000
     atom:   26    charge:    3.9724    magn:    0.4353    constr:    0.0000
     atom:   27    charge:    3.9714    magn:    0.4378    constr:    0.0000
     atom:   28    charge:    3.9832    magn:    0.4429    constr:    0.0000
     atom:   29    charge:    3.9836    magn:    0.4436    constr:    0.0000
     atom:   30    charge:    3.9718    magn:    0.4364    constr:    0.0000
     atom:   31    charge:    3.9714    magn:    0.4406    constr:    0.0000
     atom:   32    charge:    3.9834    magn:    0.4409    constr:    0.0000
     atom:   33    charge:    3.9842    magn:    0.4410    constr:    0.0000
     atom:   34    charge:    3.9718    magn:    0.4364    constr:    0.0000
     atom:   35    charge:    3.9714    magn:    0.4378    constr:    0.0000
     atom:   36    charge:    3.9834    magn:    0.4409    constr:    0.0000
     atom:   37    charge:    2.0219    magn:    0.3544    constr:    0.0000

     total cpu time spent up to now is     2023.5 secs

     total energy              =   -3655.74756268 Ry
     Harris-Foulkes estimate   =   -3655.75195681 Ry
     estimated scf accuracy    <       0.11057742 Ry

     total magnetization       =    25.92 Bohr mag/cell
     absolute magnetization    =    30.24 Bohr mag/cell

     iteration # 17     ecut=    44.10 Ry     beta=0.10
     Davidson diagonalization with overlap
     ethr =  2.48E-05,  avg # of iterations =  1.0

     negative rho (up, down):  4.403E-04 4.024E-04
 
     Adding external electric field

     Computed dipole along edir(3) : 
        Dipole               -0.5687 Ry au,         -1.4455 Debye
        Dipole field         -0.0007 Ry au
 
        Potential amp.        0.0484 Ry
        Total length         34.5908 bohr
 
 
     Adding external electric field

     Computed dipole along edir(3) : 
        Dipole               -0.5687 Ry au,         -1.4455 Debye
        Dipole field         -0.0007 Ry au
 
        Potential amp.        0.0484 Ry
        Total length         34.5908 bohr
 
 
     Magnetic moment per site:
     atom:    1    charge:    3.9838    magn:    0.4418    constr:    0.0000
     atom:    2    charge:    3.9727    magn:    0.4247    constr:    0.0000
     atom:    3    charge:    3.9733    magn:    0.4383    constr:    0.0000
     atom:    4    charge:    3.9886    magn:    0.4513    constr:    0.0000
     atom:    5    charge:    3.9838    magn:    0.4418    constr:    0.0000
     atom:    6    charge:    3.9712    magn:    0.3915    constr:    0.0000
     atom:    7    charge:    3.9733    magn:    0.4383    constr:    0.0000
     atom:    8    charge:    3.9540    magn:    0.5666    constr:    0.0000
     atom:    9    charge:    3.9846    magn:    0.4346    constr:    0.0000
     atom:   10    charge:    3.9727    magn:    0.4247    constr:    0.0000
     atom:   11    charge:    3.9724    magn:    0.4294    constr:    0.0000
     atom:   12    charge:    3.9886    magn:    0.4513    constr:    0.0000
     atom:   13    charge:    3.9854    magn:    0.4340    constr:    0.0000
     atom:   14    charge:    3.9732    magn:    0.4301    constr:    0.0000
     atom:   15    charge:    3.9721    magn:    0.4297    constr:    0.0000
     atom:   16    charge:    3.9843    magn:    0.4369    constr:    0.0000
     atom:   17    charge:    3.9842    magn:    0.4416    constr:    0.0000
     atom:   18    charge:    3.9732    magn:    0.4301    constr:    0.0000
     atom:   19    charge:    3.9732    magn:    0.4384    constr:    0.0000
     atom:   20    charge:    3.9843    magn:    0.4370    constr:    0.0000
     atom:   21    charge:    3.9842    magn:    0.4416    constr:    0.0000
     atom:   22    charge:    3.9734    magn:    0.4295    constr:    0.0000
     atom:   23    charge:    3.9732    magn:    0.4383    constr:    0.0000
     atom:   24    charge:    3.9839    magn:    0.4391    constr:    0.0000
     atom:   25    charge:    3.9849    magn:    0.4374    constr:    0.0000
     atom:   26    charge:    3.9733    magn:    0.4295    constr:    0.0000
     atom:   27    charge:    3.9736    magn:    0.4308    constr:    0.0000
     atom:   28    charge:    3.9841    magn:    0.4389    constr:    0.0000
     atom:   29    charge:    3.9852    magn:    0.4387    constr:    0.0000
     atom:   30    charge:    3.9734    magn:    0.4300    constr:    0.0000
     atom:   31    charge:    3.9739    magn:    0.4339    constr:    0.0000
     atom:   32    charge:    3.9846    magn:    0.4367    constr:    0.0000
     atom:   33    charge:    3.9849    magn:    0.4374    constr:    0.0000
     atom:   34    charge:    3.9733    magn:    0.4300    constr:    0.0000
     atom:   35    charge:    3.9736    magn:    0.4308    constr:    0.0000
     atom:   36    charge:    3.9846    magn:    0.4367    constr:    0.0000
     atom:   37    charge:    2.0195    magn:    0.3473    constr:    0.0000

     total cpu time spent up to now is     2133.3 secs

     total energy              =   -3655.74669385 Ry
     Harris-Foulkes estimate   =   -3655.75426199 Ry
     estimated scf accuracy    <       0.28509580 Ry

     total magnetization       =    25.98 Bohr mag/cell
     absolute magnetization    =    30.28 Bohr mag/cell

     iteration # 18     ecut=    44.10 Ry     beta=0.10
     Davidson diagonalization with overlap
     ethr =  2.48E-05,  avg # of iterations =  1.0

     negative rho (up, down):  4.321E-04 3.854E-04
 
     Adding external electric field

     Computed dipole along edir(3) : 
        Dipole               -0.5851 Ry au,         -1.4873 Debye
        Dipole field         -0.0007 Ry au
 
        Potential amp.        0.0498 Ry
        Total length         34.5908 bohr
 
 
     Adding external electric field

     Computed dipole along edir(3) : 
        Dipole               -0.5851 Ry au,         -1.4873 Debye
        Dipole field         -0.0007 Ry au
 
        Potential amp.        0.0498 Ry
        Total length         34.5908 bohr
 
 
     Magnetic moment per site:
     atom:    1    charge:    3.9843    magn:    0.4408    constr:    0.0000
     atom:    2    charge:    3.9730    magn:    0.4229    constr:    0.0000
     atom:    3    charge:    3.9734    magn:    0.4370    constr:    0.0000
     atom:    4    charge:    3.9888    magn:    0.4503    constr:    0.0000
     atom:    5    charge:    3.9843    magn:    0.4408    constr:    0.0000
     atom:    6    charge:    3.9715    magn:    0.3894    constr:    0.0000
     atom:    7    charge:    3.9734    magn:    0.4370    constr:    0.0000
     atom:    8    charge:    3.9546    magn:    0.5655    constr:    0.0000
     atom:    9    charge:    3.9852    magn:    0.4335    constr:    0.0000
     atom:   10    charge:    3.9730    magn:    0.4229    constr:    0.0000
     atom:   11    charge:    3.9725    magn:    0.4280    constr:    0.0000
     atom:   12    charge:    3.9889    magn:    0.4503    constr:    0.0000
     atom:   13    charge:    3.9851    magn:    0.4335    constr:    0.0000
     atom:   14    charge:    3.9731    magn:    0.4287    constr:    0.0000
     atom:   15    charge:    3.9724    magn:    0.4281    constr:    0.0000
     atom:   16    charge:    3.9844    magn:    0.4360    constr:    0.0000
     atom:   17    charge:    3.9844    magn:    0.4408    constr:    0.0000
[...]
     6.3861   6.4322   6.5276   6.6366   6.6397   6.6679   6.6855   7.0224
     7.0866   7.1629   7.1653   7.2614   7.4972   7.5810   7.7045   7.7427
     7.8587   7.9511   7.9805   8.1524   8.2225   8.2651   8.2941   8.3471
     8.4125   8.4221   8.7068   8.7321   8.8138   9.0075   9.0438   9.0991
     9.2765   9.3540   9.4437   9.5466   9.6719   9.7240   9.7369   9.7455
     9.7995   9.8805   9.8820

 ------ SPIN DOWN ----------


          k = 0.0000 0.0000 0.0000 ( 50455 PWs)   bands (ev):

   -16.4900  -7.5866  -6.2991  -6.2918  -5.1573  -5.1470  -4.8499  -4.3087
    -4.2590  -4.2528  -4.2512  -4.0973  -4.0880  -3.7850  -3.7460  -3.5741
    -3.4969  -3.4701  -3.3002  -3.1947  -3.1743  -3.0398  -2.9974  -2.9728
    -2.9609  -2.8850  -2.8477  -2.7471  -2.7331  -2.7216  -2.7136  -2.6692
    -2.6383  -2.6287  -2.6258  -2.5494  -2.5424  -2.5309  -2.5208  -2.4849
    -2.4787  -2.4365  -2.3940  -2.3508  -2.3243  -2.2754  -2.2617  -2.1662
    -2.1648  -2.1284  -2.1016  -2.0951  -2.0822  -2.0612  -2.0391  -2.0038
    -1.9352  -1.9016  -1.8602  -1.8251  -1.8119  -1.7480  -1.7305  -1.6628
    -1.6586  -1.6346  -1.6184  -1.5905  -1.5720  -1.5662  -1.5577  -1.5395
    -1.5391  -1.5335  -1.5188  -1.4951  -1.4921  -1.3966  -1.3925  -1.3909
    -1.3864  -1.3804  -1.2360  -1.2320  -1.2214  -1.2013  -1.2004  -1.1921
    -1.1839  -1.1793  -1.1694  -1.1520  -1.1482  -1.1316  -1.1157  -1.1014
    -1.0563  -1.0531  -1.0493  -1.0201  -1.0090  -0.8991  -0.8802  -0.8624
    -0.8498  -0.8436  -0.8317  -0.8283  -0.8151  -0.8025  -0.7819  -0.7764
    -0.7267  -0.7180  -0.6918  -0.6803  -0.6345  -0.5977  -0.5950  -0.5762
    -0.5754  -0.5587  -0.5548  -0.5496  -0.5257  -0.5061  -0.4846  -0.4350
    -0.4014  -0.3747  -0.3461  -0.3453  -0.3302  -0.3226  -0.3220  -0.2825
    -0.2365  -0.2200  -0.2196  -0.1975  -0.1859  -0.1807  -0.1040  -0.1038
    -0.1019  -0.0999  -0.0917  -0.0809  -0.0717  -0.0596  -0.0442  -0.0304
     0.0136   0.0273   0.0527   0.0739   0.0769   0.0782   0.1087   0.1234
     0.1299   0.1315   0.1322   0.1487   0.1700   0.1754   0.1947   0.2010
     0.2339   0.2355   0.2435   0.2530   0.2541   0.2607   0.2628   0.2703
     0.2724   0.2778   0.2846   0.2959   0.3142   0.3250   0.3356   0.3404
     0.3641   0.3765   0.4011   0.4128   0.4163   0.4281   0.4939   0.5098
     0.5335   0.5746   0.5865   0.5899   0.6219   0.7228   0.7589   0.8620
     0.9364   1.3526   1.5172   1.7707   1.7999   1.9098   1.9847   2.7511
     2.7666   2.8462   2.9134   3.0460   3.0494   3.0891   3.1319   3.1355
     3.4376   3.7575   4.1678   4.1733   4.2774   4.3093   4.3342   4.7710
     5.2104   5.2178   5.4292   5.4901   5.4962   5.5667   5.5744   5.5915
     5.5981   5.6548   6.0989   6.1434   6.1618   6.1879   6.5690   6.5789
     6.6905   6.7253   6.8367   6.8579   6.9093   7.2282   7.3341   7.4346
     7.6344   7.6798   7.7978   7.8018   7.8123   7.8233   7.8608   7.9417
     8.0222   8.0296   8.0908   8.0963   8.0976   8.1194   8.4079   8.5078
     8.5533   8.5622   8.5705   8.6028   8.6208   8.7354   8.7453   8.8896
     8.9031   9.1020   9.1087   9.1103   9.3050   9.3055   9.4296   9.5371
     9.5492   9.5539   9.5726

          k = 0.0000 0.0541 0.0000 ( 50496 PWs)   bands (ev):

   -16.4900  -7.1356  -6.7022  -6.2768  -5.8736  -5.1434  -4.4920  -4.4696
    -4.2438  -4.2124  -3.9311  -3.8745  -3.7807  -3.7012  -3.6126  -3.5421
    -3.4634  -3.4049  -3.3433  -3.2528  -3.2199  -3.2047  -3.1906  -3.1409
    -2.9774  -2.9424  -2.9028  -2.8801  -2.8037  -2.7907  -2.7687  -2.7639
    -2.7283  -2.7122  -2.6215  -2.5279  -2.5112  -2.4994  -2.4667  -2.4140
    -2.3958  -2.3907  -2.3234  -2.3056  -2.2793  -2.2693  -2.2462  -2.2166
    -2.1886  -2.1426  -2.0633  -2.0562  -2.0474  -2.0334  -2.0163  -1.9918
    -1.9325  -1.8835  -1.8704  -1.8568  -1.8402  -1.8007  -1.7796  -1.7660
    -1.7507  -1.7119  -1.6955  -1.6714  -1.5912  -1.5858  -1.5803  -1.5364
    -1.5295  -1.5159  -1.4958  -1.4758  -1.4411  -1.4276  -1.4074  -1.3836
    -1.3752  -1.3438  -1.3324  -1.3173  -1.3005  -1.2847  -1.2636  -1.2481
    -1.2333  -1.2209  -1.1877  -1.1771  -1.1521  -1.1447  -1.1213  -1.1106
    -1.0974  -1.0829  -1.0601  -1.0193  -1.0054  -0.9761  -0.9715  -0.9230
    -0.9029  -0.8492  -0.8425  -0.8137  -0.7977  -0.7899  -0.7699  -0.7623
    -0.7348  -0.7047  -0.6916  -0.6851  -0.6327  -0.6138  -0.6094  -0.6001
    -0.5928  -0.5809  -0.5648  -0.5500  -0.5358  -0.5158  -0.5073  -0.5010
    -0.4914  -0.4597  -0.4325  -0.4321  -0.3808  -0.3531  -0.3218  -0.3011
    -0.2963  -0.2695  -0.2605  -0.2577  -0.1753  -0.1653  -0.1426  -0.1327
    -0.1151  -0.0809  -0.0680  -0.0568  -0.0482  -0.0266  -0.0116   0.0124
     0.0187   0.0301   0.0365   0.0514   0.0794   0.0973   0.1154   0.1281
     0.1411   0.1516   0.1595   0.1734   0.1863   0.1966   0.2026   0.2084
     0.2217   0.2313   0.2334   0.2477   0.2614   0.2801   0.2991   0.3399
     0.3525   0.3798   0.3874   0.4011   0.4063   0.4110   0.4255   0.4549
     0.4674   0.4725   0.4899   0.4972   0.4990   0.5092   0.5242   0.5391
     0.5785   0.6793   0.7895   0.9865   1.0756   1.1117   1.1590   1.1648
     1.3689   1.5397   1.7398   1.8079   1.8728   1.9709   2.0713   2.4159
     2.5216   2.5479   2.7391   2.8800   2.9761   3.0270   3.4654   3.5635
     3.6453   3.6494   3.8232   4.0385   4.0864   4.2814   4.3867   4.4649
     4.6699   4.7007   4.8633   5.1582   5.1795   5.2839   5.3864   5.5696
     5.7138   5.8697   5.9653   5.9995   6.0593   6.1391   6.4359   6.4556
     6.4939   6.5609   6.6071   6.8240   6.8894   6.9483   6.9843   7.0646
     7.0843   7.2358   7.3059   7.4516   7.5541   7.7165   7.7882   7.8701
     7.9228   8.0433   8.0557   8.1802   8.1904   8.3125   8.3639   8.4480
     8.6235   8.7743   8.8675   8.8939   8.9299   8.9893   9.0284   9.1327
     9.1908   9.2257   9.2772   9.2918   9.3263   9.4197   9.4510   9.5025
     9.5338   9.6697   9.7247

          k = 0.0255 0.0180 0.0000 ( 50428 PWs)   bands (ev):

   -16.4900  -7.4370  -6.9963  -5.4042  -5.0461  -5.0345  -4.7484  -4.7322
    -4.7158  -4.4759  -4.4687  -3.8646  -3.7465  -3.7068  -3.5615  -3.4141
    -3.4053  -3.4045  -3.3915  -3.3121  -3.2966  -3.2236  -3.1605  -3.1277
    -2.9972  -2.9781  -2.8632  -2.7362  -2.7204  -2.6945  -2.6599  -2.6282
    -2.5919  -2.5896  -2.5885  -2.5546  -2.5239  -2.4711  -2.4539  -2.4448
    -2.3689  -2.3675  -2.2958  -2.2904  -2.2885  -2.2851  -2.2487  -2.2449
    -2.1709  -2.1697  -2.1420  -2.1005  -2.0835  -2.0716  -2.0470  -2.0067
    -1.9828  -1.9548  -1.9306  -1.9203  -1.8110  -1.7755  -1.7635  -1.7147
    -1.6679  -1.6414  -1.6116  -1.6103  -1.5997  -1.5811  -1.5626  -1.5442
    -1.5156  -1.4816  -1.4753  -1.4495  -1.4350  -1.4328  -1.4173  -1.3903
    -1.3872  -1.3828  -1.3633  -1.3093  -1.2303  -1.1627  -1.1609  -1.1298
    -1.1268  -1.1183  -1.1025  -1.0987  -1.0879  -1.0789  -1.0780  -1.0463
    -1.0346  -1.0312  -1.0025  -0.9988  -0.9787  -0.9756  -0.9571  -0.9147
    -0.9083  -0.8887  -0.8781  -0.8484  -0.8382  -0.7952  -0.7767  -0.7522
    -0.7229  -0.7071  -0.6857  -0.6846  -0.6611  -0.6329  -0.6128  -0.5653
    -0.5556  -0.5510  -0.5340  -0.5331  -0.5211  -0.4933  -0.4839  -0.4712
    -0.4367  -0.4290  -0.3970  -0.3842  -0.3797  -0.3345  -0.3339  -0.2893
    -0.2862  -0.2532  -0.2520  -0.2481  -0.1630  -0.1189  -0.1073  -0.0785
    -0.0740  -0.0650  -0.0460  -0.0315  -0.0306  -0.0229  -0.0199  -0.0122
     0.0080   0.0341   0.0542   0.0587   0.0671   0.0905   0.0982   0.1063
     0.1315   0.1438   0.1575   0.1577   0.1847   0.1853   0.1986   0.2100
     0.2140   0.2217   0.2261   0.2333   0.2354   0.2492   0.2612   0.2820
     0.2850   0.2968   0.3034   0.3035   0.3329   0.3379   0.3644   0.3901
     0.4134   0.4239   0.4498   0.4709   0.4782   0.4924   0.5153   0.5223
     0.5369   0.5860   0.5899   0.6369   0.6503   0.7483   0.8500   0.8519
     1.0557   1.1661   1.2132   1.3958   1.6755   1.6763   1.9970   2.3644
     2.8014   2.8366   2.9289   2.9820   3.1051   3.2465   3.3962   3.4868
     3.5529   3.7428   3.8805   4.2921   4.4059   4.5043   4.5553   4.6084
     4.8925   5.2280   5.2536   5.3974   5.5094   5.5847   5.6903   5.8267
     6.0657   6.0778   6.1453   6.1795   6.2299   6.2525   6.4918   6.5822
     6.6806   6.8676   6.9049   7.0677   7.1466   7.1679   7.2179   7.2279
     7.3265   7.4576   7.5014   7.5222   7.5959   7.7641   7.7852   7.8375
     7.8964   7.9177   8.0456   8.0915   8.1820   8.2045   8.3297   8.3470
     8.4078   8.4226   8.4972   8.5049   8.6413   8.7159   8.7455   8.7998
     8.8351   8.9594   9.0431   9.1534   9.1857   9.2760   9.3261   9.3274
     9.4066   9.4565   9.4821

          k = 0.0255 0.0721 0.0000 ( 50496 PWs)   bands (ev):

   -16.4900  -7.1356  -6.7022  -6.2768  -5.8736  -5.1434  -4.4920  -4.4696
    -4.2438  -4.2124  -3.9311  -3.8745  -3.7807  -3.7012  -3.6126  -3.5421
    -3.4634  -3.4049  -3.3433  -3.2528  -3.2199  -3.2047  -3.1906  -3.1409
    -2.9774  -2.9425  -2.9028  -2.8801  -2.8037  -2.7907  -2.7687  -2.7639
    -2.7283  -2.7122  -2.6215  -2.5279  -2.5112  -2.4993  -2.4667  -2.4140
    -2.3958  -2.3907  -2.3235  -2.3056  -2.2793  -2.2693  -2.2462  -2.2166
    -2.1886  -2.1426  -2.0633  -2.0562  -2.0474  -2.0334  -2.0163  -1.9918
    -1.9325  -1.8835  -1.8704  -1.8568  -1.8402  -1.8006  -1.7796  -1.7660
    -1.7507  -1.7119  -1.6955  -1.6714  -1.5912  -1.5858  -1.5803  -1.5364
    -1.5295  -1.5159  -1.4958  -1.4757  -1.4411  -1.4276  -1.4074  -1.3836
    -1.3752  -1.3438  -1.3324  -1.3173  -1.3005  -1.2847  -1.2636  -1.2481
    -1.2333  -1.2209  -1.1877  -1.1771  -1.1521  -1.1447  -1.1213  -1.1106
    -1.0974  -1.0829  -1.0601  -1.0193  -1.0054  -0.9761  -0.9715  -0.9230
    -0.9029  -0.8492  -0.8425  -0.8137  -0.7977  -0.7899  -0.7699  -0.7623
    -0.7348  -0.7047  -0.6916  -0.6851  -0.6328  -0.6138  -0.6094  -0.6001
    -0.5928  -0.5809  -0.5648  -0.5500  -0.5358  -0.5158  -0.5073  -0.5010
    -0.4914  -0.4597  -0.4325  -0.4320  -0.3808  -0.3531  -0.3218  -0.3011
    -0.2963  -0.2695  -0.2605  -0.2577  -0.1753  -0.1653  -0.1426  -0.1327
    -0.1151  -0.0809  -0.0680  -0.0568  -0.0482  -0.0266  -0.0116   0.0124
     0.0187   0.0301   0.0365   0.0514   0.0794   0.0973   0.1154   0.1281
     0.1411   0.1516   0.1595   0.1734   0.1863   0.1966   0.2026   0.2084
     0.2217   0.2313   0.2334   0.2477   0.2614   0.2801   0.2991   0.3399
     0.3525   0.3798   0.3874   0.4011   0.4063   0.4110   0.4255   0.4549
     0.4674   0.4726   0.4899   0.4972   0.4990   0.5092   0.5242   0.5391
     0.5785   0.6792   0.7895   0.9865   1.0756   1.1117   1.1590   1.1648
     1.3689   1.5397   1.7398   1.8079   1.8728   1.9709   2.0713   2.4159
     2.5216   2.5479   2.7391   2.8799   2.9761   3.0270   3.4654   3.5635
     3.6453   3.6494   3.8232   4.0385   4.0865   4.2814   4.3867   4.4649
     4.6699   4.7007   4.8633   5.1582   5.1794   5.2839   5.3864   5.5696
     5.7138   5.8697   5.9653   5.9995   6.0593   6.1391   6.4359   6.4556
     6.4939   6.5609   6.6071   6.8240   6.8894   6.9482   6.9843   7.0647
     7.0843   7.2358   7.3059   7.4516   7.5541   7.7165   7.7882   7.8701
     7.9228   8.0434   8.0557   8.1802   8.1904   8.3125   8.3639   8.4479
     8.6235   8.7743   8.8675   8.8939   8.9299   8.9892   9.0284   9.1327
     9.1908   9.2257   9.2771   9.2918   9.3263   9.4197   9.4510   9.5025
     9.5338   9.6696   9.7247

          k = 0.0255-0.0361 0.0000 ( 50488 PWs)   bands (ev):

   -16.4900  -7.2830  -6.4149  -6.0170  -6.0116  -5.2441  -5.2426  -4.5935
    -4.0006  -3.9658  -3.8596  -3.8305  -3.7475  -3.5389  -3.5374  -3.5325
    -3.4806  -3.4171  -3.2158  -3.2143  -3.1679  -3.1558  -3.1164  -3.0942
    -3.0288  -3.0048  -2.9965  -2.9596  -2.8829  -2.7797  -2.7775  -2.7320
    -2.6943  -2.6809  -2.6381  -2.6265  -2.5814  -2.5588  -2.5193  -2.4713
    -2.3851  -2.3561  -2.3039  -2.2603  -2.2554  -2.2277  -2.2201  -2.2075
    -2.1967  -2.1707  -2.1652  -2.1550  -2.1114  -2.0931  -2.0885  -1.9017
    -1.8793  -1.8661  -1.8538  -1.7974  -1.7308  -1.7263  -1.7081  -1.7059
    -1.6508  -1.6482  -1.6361  -1.6094  -1.5988  -1.5966  -1.5931  -1.5865
    -1.5750  -1.5717  -1.5429  -1.5354  -1.5308  -1.4880  -1.4673  -1.3647
    -1.3530  -1.3259  -1.3125  -1.2787  -1.2785  -1.2468  -1.2389  -1.2283
    -1.2154  -1.2093  -1.2008  -1.1574  -1.1507  -1.1403  -1.1225  -1.1097
    -1.0999  -1.0391  -1.0385  -1.0179  -1.0048  -0.9946  -0.9720  -0.9473
    -0.9393  -0.9007  -0.8972  -0.8734  -0.8534  -0.8420  -0.8409  -0.8295
    -0.7821  -0.7640  -0.7434  -0.7025  -0.6656  -0.6586  -0.6187  -0.6102
    -0.6097  -0.5804  -0.5726  -0.5653  -0.5435  -0.5155  -0.4827  -0.4623
    -0.4466  -0.4430  -0.4159  -0.3599  -0.3559  -0.3546  -0.3215  -0.2934
    -0.2846  -0.2659  -0.2317  -0.1970  -0.1719  -0.1549  -0.1140  -0.1030
    -0.0775  -0.0517  -0.0488  -0.0454  -0.0349  -0.0247  -0.0146  -0.0111
     0.0083   0.0233   0.0362   0.0532   0.0603   0.0705   0.1097   0.1107
     0.1355   0.1378   0.1407   0.1449   0.1881   0.1909   0.2063   0.2264
     0.2320   0.2348   0.2648   0.2756   0.2813   0.2836   0.2993   0.3064
     0.3137   0.3236   0.3459   0.3472   0.3970   0.4364   0.4417   0.4552
     0.4690   0.4855   0.4856   0.4953   0.4988   0.5404   0.5409   0.5892
     0.6233   0.7306   0.9800   0.9919   1.0662   1.1171   1.1905   1.2003
     1.3156   1.3967   1.5689   1.7387   1.8751   2.1700   2.2170   2.2401
     2.6127   2.7042   2.9313   2.9328   3.1172   3.2000   3.2620   3.3308
     3.4032   3.4403   3.5222   3.8823   4.1054   4.1515   4.1749   4.4698
     4.5750   4.9592   5.0304   5.0672   5.2101   5.3761   5.5096   5.6215
     5.7815   5.7878   5.8687   6.0325   6.3525   6.3600   6.4748   6.5160
     6.6523   6.6529   6.6709   6.6762   6.6996   6.7504   6.8942   7.0915
     7.1200   7.2191   7.2372   7.3948   7.5657   7.6628   7.9026   7.9200
     7.9811   8.0122   8.0717   8.1936   8.2786   8.3439   8.3593   8.4361
     8.5911   8.6028   8.7321   8.8233   8.8929   9.0817   9.1066   9.1321
     9.3669   9.4644   9.5351   9.5790   9.7039   9.7816   9.8014   9.8678
     9.9074   9.9367   9.9557

     the Fermi energy is     0.2472 ev

!    total energy              =   -3655.76752935 Ry
     Harris-Foulkes estimate   =   -3655.76752633 Ry
     estimated scf accuracy    <       0.00000062 Ry

     The total energy is the sum of the following terms:

     one-electron contribution =  -18908.36140948 Ry
     hartree contribution      =    9831.59963713 Ry
     xc contribution           =   -1513.64716550 Ry
     ewald contribution        =    6934.82662720 Ry
     electric field correction =       0.00039834 Ry
     smearing contrib. (-TS)   =      -0.18561703 Ry

     total magnetization       =    25.71 Bohr mag/cell
     absolute magnetization    =    29.44 Bohr mag/cell

     convergence has been achieved in  19 iterations

     Forces acting on atoms (Ry/au):


     negative rho (up, down):  4.424E-04 3.284E-04
     atom    1 type  1   force =     0.00012387    0.00059907    0.01808615
     atom    2 type  1   force =    -0.00003959   -0.00035879   -0.01833393
     atom    3 type  1   force =     0.00011806   -0.00027853   -0.00039127
     atom    4 type  1   force =     0.00002136   -0.00019027    0.00038571
     atom    5 type  1   force =     0.00062680   -0.00007581    0.01810267
     atom    6 type  1   force =    -0.00023461   -0.00011717   -0.01553594
     atom    7 type  1   force =    -0.00013297    0.00011380   -0.00040990
     atom    8 type  1   force =    -0.00005738   -0.00005693    0.00001649
     atom    9 type  1   force =     0.00020458    0.00015140    0.01861906
     atom   10 type  1   force =    -0.00031725    0.00006597   -0.01836235
     atom   11 type  1   force =     0.00009229    0.00021940   -0.00109368
     atom   12 type  1   force =    -0.00017700    0.00010352    0.00047256
     atom   13 type  1   force =    -0.00027818   -0.00021297    0.01849103
     atom   14 type  1   force =    -0.00019401   -0.00004139   -0.01846488
     atom   15 type  1   force =    -0.00026240   -0.00004841   -0.00084921
     atom   16 type  1   force =    -0.00031884   -0.00005611    0.00009276
     atom   17 type  1   force =    -0.00068075   -0.00002562    0.01796243
     atom   18 type  1   force =    -0.00007084   -0.00016276   -0.01843189
     atom   19 type  1   force =     0.00013934   -0.00027644   -0.00010057
     atom   20 type  1   force =    -0.00016105   -0.00024367   -0.00002188
     atom   21 type  1   force =    -0.00026902   -0.00062877    0.01797539
     atom   22 type  1   force =     0.00034524    0.00025986   -0.01971902
     atom   23 type  1   force =    -0.00015640    0.00012606   -0.00013312
     atom   24 type  1   force =    -0.00045015   -0.00035770    0.00027503
     atom   25 type  1   force =     0.00016085   -0.00002826    0.01879907
     atom   26 type  1   force =    -0.00013124   -0.00009909   -0.01971911
     atom   27 type  1   force =    -0.00003272    0.00015769   -0.00033027
     atom   28 type  1   force =     0.00058187    0.00035620    0.00015902
     atom   29 type  1   force =     0.00006580    0.00007835    0.01959781
     atom   30 type  1   force =     0.00031319    0.00026461   -0.01845593
     atom   31 type  1   force =    -0.00005605    0.00014200    0.00001015
     atom   32 type  1   force =     0.00023455    0.00033386    0.00003179
     atom   33 type  1   force =     0.00004756    0.00014405    0.01879516
     atom   34 type  1   force =     0.00033932    0.00020108   -0.01842490
     atom   35 type  1   force =     0.00023236   -0.00019913   -0.00032307
     atom   36 type  1   force =     0.00035927    0.00014200   -0.00008966
     atom   37 type  2   force =     0.00001415   -0.00000109    0.00131833

     Total force =     0.078374     Total SCF correction =     0.002518
 !ASE

     Writing output data file calc.save
 
     init_run     :     44.90s CPU     52.21s WALL (       1 calls)
     electrons    :  27811.53s CPU  32198.95s WALL (       8 calls)
     update_pot   :     27.22s CPU     29.15s WALL (       7 calls)
     forces       :    556.30s CPU    579.98s WALL (       8 calls)

     Called by init_run:
     wfcinit      :     27.43s CPU     33.52s WALL (       1 calls)
     potinit      :      1.53s CPU      1.72s WALL (       1 calls)

     Called by electrons:
     c_bands      :  17022.11s CPU  20295.08s WALL (     275 calls)
     sum_band     :   7297.83s CPU   8157.51s WALL (     275 calls)
     v_of_rho     :    164.63s CPU    194.94s WALL (     283 calls)
     newd         :   3374.91s CPU   3594.07s WALL (     283 calls)
     mix_rho      :     33.45s CPU     41.15s WALL (     275 calls)

     Called by c_bands:
     init_us_2    :     89.47s CPU     95.89s WALL (    5590 calls)
     cegterg      :  16498.78s CPU  19749.39s WALL (    2750 calls)

     Called by *egterg:
     h_psi        :   9802.84s CPU  12436.67s WALL (    7005 calls)
     s_psi        :   1348.31s CPU   1397.52s WALL (    7005 calls)
     g_psi        :     33.89s CPU     34.66s WALL (    4245 calls)
     cdiaghg      :   1782.25s CPU   1832.90s WALL (    6925 calls)

     Called by h_psi:
     add_vuspsi   :   1367.09s CPU   1413.73s WALL (    7005 calls)

     General routines
     calbec       :   2062.43s CPU   2121.09s WALL (    9835 calls)
     fft          :    151.88s CPU    183.27s WALL (    8845 calls)
     ffts         :      2.14s CPU      2.97s WALL (    1116 calls)
     fftw         :   5231.64s CPU   8261.06s WALL ( 4087732 calls)
     interpolate  :     20.04s CPU     28.62s WALL (    1116 calls)
     davcio       :      0.05s CPU      0.70s WALL (      10 calls)
 
     Parallel routines
     fft_scatter  :   2881.70s CPU   4935.19s WALL ( 4097693 calls)
 
     PWSCF        :     7h55m CPU        9h 9m WALL

 
   This run was terminated on:   8:54:27  24Feb2018            

=------------------------------------------------------------------------------=
   JOB DONE.
=------------------------------------------------------------------------------=
