  python dir          : /home/vossj/suncat/lib/python2.7/site-packages/espresso
  espresso dir        : /home/vossj/suncat/esdld/espresso-dynpy-beef/bin
  pseudo dir          : /home/alatimer/bin/psp/esp_psp_w_gbrvRu/
  ase-espresso py git : ffa2778-git



     Program PWSCF v.5.1rc2 (svn rev. ) starts on 18Mar2017 at 15:50:43 

     This program is part of the open-source Quantum ESPRESSO suite
     for quantum simulation of materials; please cite
         "P. Giannozzi et al., J. Phys.:Condens. Matter 21 395502 (2009);
          URL http://www.quantum-espresso.org", 
     in publications or presentations arising from this work. More details at
     http://www.quantum-espresso.org/quote

     Parallel version (MPI), running on    16 processors
     R & G space division:  proc/nbgrp/npool/nimage =      16
     Reading input from pw.inp
     Message from routine read_cards :
     DEPRECATED: no units specified in CELL_PARAMETERS card

     Current dimensions of program PWSCF are:
     Max number of different atomic species (ntypx) = 10
     Max number of k-points (npk) =  40000
     Max angular momentum in pseudopotentials (lmaxx) =  3
     Presently no symmetry can be used with electric field


     IMPORTANT: XC functional enforced from input :
     Exchange-correlation      = RPBE ( 1  4 28  4 0)
     Any further DFT definition will be discarded
     Please, verify this is what you really want

               file Ni.UPF: wavefunction(s)  3D renormalized

     Subspace diagonalization in iterative solution of the eigenvalue problem:
     a serial algorithm will be used

     Found symmetry operation: I + ( -0.0000  0.3333  0.0000)
     This is a supercell, fractional translations are disabled
 
     Parallelization info
     --------------------
     sticks:   dense  smooth     PW     G-vecs:    dense   smooth      PW
     Min         386     154     42                68872    17389    2480
     Max         387     155     43                68885    17439    2491
     Sum        6181    2479    673              1102011   278611   39737
 
     Generating pointlists ...
     new r_m :   0.4125 (alat units)  0.7795 (a.u.) for type    1
     new r_m :   0.4125 (alat units)  0.7795 (a.u.) for type    2


     bravais-lattice index     =            0
     lattice parameter (alat)  =       1.8897  a.u.
     unit-cell volume          =    7046.4111 (a.u.)^3
     number of atoms/cell      =           45
     number of atomic types    =            2
     number of electrons       =       396.00
     number of Kohn-Sham states=          298
     kinetic-energy cutoff     =      44.0992  Ry
     charge density cutoff     =     440.9919  Ry
     convergence threshold     =      7.3E-07
     mixing beta               =       0.1000
     number of iterations used =           10  plain     mixing
     Exchange-correlation      = RPBE ( 1  4 28  4 0)
     nstep                     =           50


     celldm(1)=   1.889726  celldm(2)=   0.000000  celldm(3)=   0.000000
     celldm(4)=   0.000000  celldm(5)=   0.000000  celldm(6)=   0.000000

     crystal axes: (cart. coord. in units of alat)
               a(1) = (   7.548011   0.000000   0.000000 )  
               a(2) = (  -3.774005   6.536769   0.000000 )  
               a(3) = (   0.000000   0.000000  21.162925 )  

     reciprocal axes: (cart. coord. in units 2 pi/alat)
               b(1) = (  0.132485  0.076490  0.000000 )  
               b(2) = (  0.000000  0.152981  0.000000 )  
               b(3) = (  0.000000  0.000000  0.047252 )  


     PseudoPot. # 1 for Ni read from file:
     /home/alatimer/bin/psp/esp_psp_w_gbrvRu/Ni.UPF
     MD5 check sum: 8b2449ee0060d9c33484ccd47bb60870
     Pseudo is Ultrasoft + core correction, Zval = 10.0
     Generated using "atomic" code by A. Dal Corso  v.5.0.2 svn rev. 9415
     Using radial grid of 1195 points,  6 beta functions with: 
                l(1) =   0
                l(2) =   0
                l(3) =   1
                l(4) =   1
                l(5) =   2
                l(6) =   2
     Q(r) pseudized with 0 coefficients 


     PseudoPot. # 2 for  C read from file:
     /home/alatimer/bin/psp/esp_psp_w_gbrvRu/C.UPF
     MD5 check sum: ab446d787031eba755f1d5ee46644bb0
     Pseudo is Ultrasoft + core correction, Zval =  4.0
     Generated using "atomic" code by A. Dal Corso  v.5.0.2 svn rev. 9415
     Using radial grid of 1073 points,  4 beta functions with: 
                l(1) =   0
                l(2) =   0
                l(3) =   1
                l(4) =   1
     Q(r) pseudized with 0 coefficients 


     atomic species   valence    mass     pseudopotential
        Ni1           10.00    58.69340     Ni( 1.00)
        C1             4.00    12.01100      C( 1.00)

     Starting magnetic structure 
     atomic species   magnetization
        Ni1          0.300
        C1           0.750

     No symmetry found



   Cartesian axes

     site n.     atom                  positions (alat units)
         1           Ni1 tau(   1) = (   0.0000000   0.0000000   7.5000000  )
         2           Ni1 tau(   2) = (   1.2580018   0.7263077   9.5543084  )
         3           Ni1 tau(   3) = (   0.0000000   1.4526154  11.6086168  )
         4           Ni1 tau(   4) = (   1.2580018   2.1789231  13.6629252  )
         5           Ni1 tau(   5) = (  -1.2580018   2.1789231   7.5000000  )
         6           Ni1 tau(   6) = (   0.0000000   2.9052308   9.5543084  )
         7           Ni1 tau(   7) = (  -1.2580018   3.6315385  11.6086168  )
         8           Ni1 tau(   8) = (  -0.0000000   4.3578462  13.6629252  )
         9           Ni1 tau(   9) = (  -2.5160037   4.3578462   7.5000000  )
        10           Ni1 tau(  10) = (  -1.2580018   5.0841539   9.5543084  )
        11           Ni1 tau(  11) = (  -2.5160037   5.8104616  11.6086168  )
        12           Ni1 tau(  12) = (  -1.2580018   6.5367693  13.6629252  )
        13           Ni1 tau(  13) = (   2.5160037   0.0000000   7.5000000  )
        14           Ni1 tau(  14) = (   3.7740055   0.7263077   9.5543084  )
        15           Ni1 tau(  15) = (   2.5160037   1.4526154  11.6086168  )
        16           Ni1 tau(  16) = (   3.7740055   2.1789231  13.6629252  )
        17           Ni1 tau(  17) = (   1.2580018   2.1789231   7.5000000  )
        18           Ni1 tau(  18) = (   2.5160037   2.9052308   9.5543084  )
        19           Ni1 tau(  19) = (   1.2580018   3.6315385  11.6086168  )
        20           Ni1 tau(  20) = (   2.5160037   4.3578462  13.6629252  )
        21           Ni1 tau(  21) = (  -0.0000000   4.3578462   7.5000000  )
        22           Ni1 tau(  22) = (   1.2580018   5.0841539   9.5543084  )
        23           Ni1 tau(  23) = (  -0.0000000   5.8104616  11.6086168  )
        24           Ni1 tau(  24) = (   1.2580018   6.5367693  13.6629252  )
        25           Ni1 tau(  25) = (   5.0320073   0.0000000   7.5000000  )
        26           Ni1 tau(  26) = (   6.2900092   0.7263077   9.5543084  )
        27           Ni1 tau(  27) = (   5.0320073   1.4526154  11.6086168  )
        28           Ni1 tau(  28) = (   6.2900092   2.1789231  13.6629252  )
        29           Ni1 tau(  29) = (   3.7740055   2.1789231   7.5000000  )
        30           Ni1 tau(  30) = (   5.0320073   2.9052308   9.5543084  )
        31           Ni1 tau(  31) = (   3.7740055   3.6315385  11.6086168  )
        32           Ni1 tau(  32) = (   5.0320073   4.3578462  13.6629252  )
        33           Ni1 tau(  33) = (   2.5160037   4.3578462   7.5000000  )
        34           Ni1 tau(  34) = (   3.7740055   5.0841539   9.5543084  )
        35           Ni1 tau(  35) = (   2.5160037   5.8104616  11.6086168  )
        36           Ni1 tau(  36) = (   3.7740055   6.5367693  13.6629252  )
        37           C1  tau(  37) = (   3.8160037   0.9000000  14.8629252  )
        38           C1  tau(  38) = (   6.3320073   0.9000000  14.8629252  )
        39           C1  tau(  39) = (   1.3000000   0.9000000  14.8629252  )
        40           C1  tau(  40) = (   3.8160037   5.2578462  14.8629252  )
        41           C1  tau(  41) = (  -1.2160037   5.2578462  14.8629252  )
        42           C1  tau(  42) = (   5.0740055   3.0789231  14.8629252  )
        43           C1  tau(  43) = (   0.0419982   3.0789231  14.8629252  )
        44           C1  tau(  44) = (   1.3000000   5.2578462  14.8629252  )
        45           C1  tau(  45) = (   2.5580018   3.0789231  14.8629252  )

     number of k points=    10  Fermi-Dirac smearing, width (Ry)=  0.0073
                       cart. coord. in units 2pi/alat
        k(    1) = (   0.0000000   0.0000000   0.0000000), wk =   0.1111111
        k(    2) = (   0.0000000   0.0509936   0.0000000), wk =   0.2222222
        k(    3) = (   0.0441617   0.0254968   0.0000000), wk =   0.2222222
        k(    4) = (   0.0441617   0.0764904   0.0000000), wk =   0.2222222
        k(    5) = (   0.0441617  -0.0254968   0.0000000), wk =   0.2222222
        k(    6) = (   0.0000000   0.0000000   0.0000000), wk =   0.1111111
        k(    7) = (   0.0000000   0.0509936   0.0000000), wk =   0.2222222
        k(    8) = (   0.0441617   0.0254968   0.0000000), wk =   0.2222222
        k(    9) = (   0.0441617   0.0764904   0.0000000), wk =   0.2222222
        k(   10) = (   0.0441617  -0.0254968   0.0000000), wk =   0.2222222

     Dense  grid:  1102011 G-vectors     FFT dimensions: (  96,  96, 270)

     Smooth grid:   278611 G-vectors     FFT dimensions: (  64,  64, 180)

     Largest allocated arrays     est. size (Mb)     dimensions
        Kohn-Sham Wavefunctions         9.93 Mb     (    2183,  298)
        NL pseudopotentials            23.98 Mb     (    2183,  720)
        Each V/rho on FFT grid          4.78 Mb     (  156672,   2)
        Each G-vector array             0.53 Mb     (   68874)
        G-vector shells                 0.19 Mb     (   24563)
     Largest temporary arrays     est. size (Mb)     dimensions
        Auxiliary wavefunctions        39.71 Mb     (    2183, 1192)
        Each subspace H/S matrix       21.68 Mb     (    1192, 1192)
        Each <psi_i|beta_j> matrix      3.27 Mb     (     720,  298)
        Arrays for rho mixing          23.91 Mb     (  156672,   10)

     Initial potential from superposition of free atoms
     Check: negative starting charge=(component1):   -0.000303
     Check: negative starting charge=(component2):   -0.000173

     starting charge  395.99059, renormalised to  396.00000

     negative rho (up, down):  3.030E-04 1.725E-04
 
     Adding external electric field

     Computed dipole along edir(3) : 
        Dipole               -0.0039 Ry au,         -0.0099 Debye
        Dipole field         -0.0000 Ry au
 
        Potential amp.        0.0005 Ry
        Total length         38.9923 bohr
 
 
     Adding external electric field

     Computed dipole along edir(3) : 
        Dipole               -0.0039 Ry au,         -0.0099 Debye
        Dipole field         -0.0000 Ry au
 
        Potential amp.        0.0005 Ry
        Total length         38.9923 bohr
 
     Starting wfc are  360 randomized atomic wfcs

     total cpu time spent up to now is       34.6 secs

     Self-consistent Calculation

     iteration #  1     ecut=    44.10 Ry     beta=0.10
     Davidson diagonalization with overlap
     ethr =  1.00E-02,  avg # of iterations =  7.3

     negative rho (up, down):  2.535E-04 1.445E-04
 
     Adding external electric field

     Computed dipole along edir(3) : 
        Dipole               -0.9636 Ry au,         -2.4492 Debye
        Dipole field         -0.0017 Ry au
 
        Potential amp.        0.1340 Ry
        Total length         38.9923 bohr
 
 
     Adding external electric field

     Computed dipole along edir(3) : 
        Dipole               -0.9636 Ry au,         -2.4492 Debye
        Dipole field         -0.0017 Ry au
 
        Potential amp.        0.1340 Ry
        Total length         38.9923 bohr
 
 
     Magnetic moment per site:
     atom:    1    charge:    3.9450    magn:    1.1294    constr:    0.0000
     atom:    2    charge:    3.9670    magn:    1.1122    constr:    0.0000
     atom:    3    charge:    3.9740    magn:    1.1057    constr:    0.0000
     atom:    4    charge:    3.9571    magn:    1.1033    constr:    0.0000
     atom:    5    charge:    3.9450    magn:    1.1294    constr:    0.0000
     atom:    6    charge:    3.9670    magn:    1.1122    constr:    0.0000
     atom:    7    charge:    3.9740    magn:    1.1057    constr:    0.0000
     atom:    8    charge:    3.9571    magn:    1.1033    constr:    0.0000
     atom:    9    charge:    3.9450    magn:    1.1294    constr:    0.0000
     atom:   10    charge:    3.9670    magn:    1.1122    constr:    0.0000
     atom:   11    charge:    3.9740    magn:    1.1057    constr:    0.0000
     atom:   12    charge:    3.9571    magn:    1.1033    constr:    0.0000
     atom:   13    charge:    3.9450    magn:    1.1294    constr:    0.0000
     atom:   14    charge:    3.9670    magn:    1.1122    constr:    0.0000
     atom:   15    charge:    3.9740    magn:    1.1057    constr:    0.0000
     atom:   16    charge:    3.9571    magn:    1.1033    constr:    0.0000
     atom:   17    charge:    3.9450    magn:    1.1294    constr:    0.0000
     atom:   18    charge:    3.9670    magn:    1.1122    constr:    0.0000
     atom:   19    charge:    3.9740    magn:    1.1057    constr:    0.0000
     atom:   20    charge:    3.9571    magn:    1.1033    constr:    0.0000
     atom:   21    charge:    3.9450    magn:    1.1294    constr:    0.0000
     atom:   22    charge:    3.9670    magn:    1.1122    constr:    0.0000
     atom:   23    charge:    3.9740    magn:    1.1057    constr:    0.0000
     atom:   24    charge:    3.9571    magn:    1.1033    constr:    0.0000
     atom:   25    charge:    3.9450    magn:    1.1294    constr:    0.0000
     atom:   26    charge:    3.9670    magn:    1.1122    constr:    0.0000
     atom:   27    charge:    3.9740    magn:    1.1057    constr:    0.0000
     atom:   28    charge:    3.9571    magn:    1.1033    constr:    0.0000
     atom:   29    charge:    3.9450    magn:    1.1294    constr:    0.0000
     atom:   30    charge:    3.9670    magn:    1.1122    constr:    0.0000
     atom:   31    charge:    3.9740    magn:    1.1057    constr:    0.0000
     atom:   32    charge:    3.9570    magn:    1.1033    constr:    0.0000
     atom:   33    charge:    3.9450    magn:    1.1294    constr:    0.0000
     atom:   34    charge:    3.9670    magn:    1.1122    constr:    0.0000
     atom:   35    charge:    3.9740    magn:    1.1057    constr:    0.0000
     atom:   36    charge:    3.9571    magn:    1.1033    constr:    0.0000
     atom:   37    charge:    0.5776    magn:    0.4017    constr:    0.0000
     atom:   38    charge:    0.5776    magn:    0.4017    constr:    0.0000
     atom:   39    charge:    0.5776    magn:    0.4017    constr:    0.0000
     atom:   40    charge:    0.5776    magn:    0.4017    constr:    0.0000
     atom:   41    charge:    0.5776    magn:    0.4017    constr:    0.0000
     atom:   42    charge:    0.5776    magn:    0.4017    constr:    0.0000
     atom:   43    charge:    0.5776    magn:    0.4017    constr:    0.0000
     atom:   44    charge:    0.5776    magn:    0.4017    constr:    0.0000
     atom:   45    charge:    0.5776    magn:    0.4017    constr:    0.0000

     total cpu time spent up to now is      169.7 secs

     total energy              =   -3724.25667612 Ry
     Harris-Foulkes estimate   =   -3725.18376479 Ry
     estimated scf accuracy    <      12.26130454 Ry

     total magnetization       =    41.53 Bohr mag/cell
     absolute magnetization    =    41.56 Bohr mag/cell

     iteration #  2     ecut=    44.10 Ry     beta=0.10
     Davidson diagonalization with overlap
     ethr =  3.10E-03,  avg # of iterations =  3.2

     negative rho (up, down):  2.518E-04 1.659E-04
 
     Adding external electric field

     Computed dipole along edir(3) : 
        Dipole                0.7225 Ry au,          1.8364 Debye
        Dipole field          0.0013 Ry au
 
        Potential amp.       -0.1005 Ry
        Total length         38.9923 bohr
 
 
     Adding external electric field

     Computed dipole along edir(3) : 
        Dipole                0.7225 Ry au,          1.8364 Debye
        Dipole field          0.0013 Ry au
 
        Potential amp.       -0.1005 Ry
        Total length         38.9923 bohr
 
 
     Magnetic moment per site:
     atom:    1    charge:    3.9588    magn:    1.1094    constr:    0.0000
     atom:    2    charge:    3.9662    magn:    1.1015    constr:    0.0000
     atom:    3    charge:    3.9567    magn:    1.1090    constr:    0.0000
     atom:    4    charge:    3.9584    magn:    1.0883    constr:    0.0000
     atom:    5    charge:    3.9588    magn:    1.1094    constr:    0.0000
     atom:    6    charge:    3.9662    magn:    1.1015    constr:    0.0000
     atom:    7    charge:    3.9567    magn:    1.1090    constr:    0.0000
     atom:    8    charge:    3.9584    magn:    1.0883    constr:    0.0000
     atom:    9    charge:    3.9588    magn:    1.1094    constr:    0.0000
     atom:   10    charge:    3.9662    magn:    1.1015    constr:    0.0000
     atom:   11    charge:    3.9567    magn:    1.1090    constr:    0.0000
     atom:   12    charge:    3.9584    magn:    1.0883    constr:    0.0000
     atom:   13    charge:    3.9588    magn:    1.1094    constr:    0.0000
     atom:   14    charge:    3.9662    magn:    1.1015    constr:    0.0000
     atom:   15    charge:    3.9567    magn:    1.1090    constr:    0.0000
     atom:   16    charge:    3.9584    magn:    1.0882    constr:    0.0000
     atom:   17    charge:    3.9588    magn:    1.1094    constr:    0.0000
     atom:   18    charge:    3.9662    magn:    1.1015    constr:    0.0000
     atom:   19    charge:    3.9567    magn:    1.1090    constr:    0.0000
     atom:   20    charge:    3.9584    magn:    1.0883    constr:    0.0000
     atom:   21    charge:    3.9588    magn:    1.1094    constr:    0.0000
     atom:   22    charge:    3.9662    magn:    1.1015    constr:    0.0000
     atom:   23    charge:    3.9567    magn:    1.1090    constr:    0.0000
     atom:   24    charge:    3.9584    magn:    1.0883    constr:    0.0000
     atom:   25    charge:    3.9588    magn:    1.1094    constr:    0.0000
     atom:   26    charge:    3.9662    magn:    1.1015    constr:    0.0000
     atom:   27    charge:    3.9567    magn:    1.1090    constr:    0.0000
     atom:   28    charge:    3.9584    magn:    1.0882    constr:    0.0000
     atom:   29    charge:    3.9588    magn:    1.1094    constr:    0.0000
     atom:   30    charge:    3.9662    magn:    1.1015    constr:    0.0000
     atom:   31    charge:    3.9567    magn:    1.1090    constr:    0.0000
     atom:   32    charge:    3.9584    magn:    1.0883    constr:    0.0000
     atom:   33    charge:    3.9588    magn:    1.1094    constr:    0.0000
     atom:   34    charge:    3.9662    magn:    1.1015    constr:    0.0000
     atom:   35    charge:    3.9567    magn:    1.1090    constr:    0.0000
     atom:   36    charge:    3.9584    magn:    1.0883    constr:    0.0000
     atom:   37    charge:    0.5794    magn:    0.3988    constr:    0.0000
     atom:   38    charge:    0.5794    magn:    0.3988    constr:    0.0000
     atom:   39    charge:    0.5794    magn:    0.3988    constr:    0.0000
     atom:   40    charge:    0.5794    magn:    0.3988    constr:    0.0000
     atom:   41    charge:    0.5794    magn:    0.3988    constr:    0.0000
     atom:   42    charge:    0.5794    magn:    0.3988    constr:    0.0000
     atom:   43    charge:    0.5794    magn:    0.3988    constr:    0.0000
     atom:   44    charge:    0.5794    magn:    0.3988    constr:    0.0000
     atom:   45    charge:    0.5794    magn:    0.3988    constr:    0.0000

     total cpu time spent up to now is      253.3 secs

     total energy              =   -3723.76338889 Ry
     Harris-Foulkes estimate   =   -3727.71235669 Ry
     estimated scf accuracy    <     109.35242160 Ry

     total magnetization       =    50.69 Bohr mag/cell
     absolute magnetization    =    50.70 Bohr mag/cell

     iteration #  3     ecut=    44.10 Ry     beta=0.10
     Davidson diagonalization with overlap
     ethr =  3.10E-03,  avg # of iterations =  3.6

     negative rho (up, down):  2.588E-04 1.803E-04
 
     Adding external electric field

     Computed dipole along edir(3) : 
        Dipole               -0.5691 Ry au,         -1.4466 Debye
        Dipole field         -0.0010 Ry au
 
        Potential amp.        0.0792 Ry
        Total length         38.9923 bohr
 
 
     Adding external electric field

     Computed dipole along edir(3) : 
        Dipole               -0.5691 Ry au,         -1.4466 Debye
        Dipole field         -0.0010 Ry au
 
        Potential amp.        0.0792 Ry
        Total length         38.9923 bohr
 
 
     Magnetic moment per site:
     atom:    1    charge:    3.9601    magn:    1.1007    constr:    0.0000
     atom:    2    charge:    3.9597    magn:    1.0979    constr:    0.0000
     atom:    3    charge:    3.9549    magn:    1.1013    constr:    0.0000
     atom:    4    charge:    3.9628    magn:    1.0750    constr:    0.0000
     atom:    5    charge:    3.9601    magn:    1.1007    constr:    0.0000
     atom:    6    charge:    3.9597    magn:    1.0979    constr:    0.0000
     atom:    7    charge:    3.9549    magn:    1.1013    constr:    0.0000
     atom:    8    charge:    3.9628    magn:    1.0750    constr:    0.0000
     atom:    9    charge:    3.9601    magn:    1.1007    constr:    0.0000
     atom:   10    charge:    3.9597    magn:    1.0979    constr:    0.0000
     atom:   11    charge:    3.9549    magn:    1.1013    constr:    0.0000
     atom:   12    charge:    3.9628    magn:    1.0750    constr:    0.0000
     atom:   13    charge:    3.9601    magn:    1.1007    constr:    0.0000
     atom:   14    charge:    3.9597    magn:    1.0979    constr:    0.0000
     atom:   15    charge:    3.9549    magn:    1.1013    constr:    0.0000
     atom:   16    charge:    3.9628    magn:    1.0750    constr:    0.0000
     atom:   17    charge:    3.9601    magn:    1.1007    constr:    0.0000
     atom:   18    charge:    3.9597    magn:    1.0979    constr:    0.0000
     atom:   19    charge:    3.9549    magn:    1.1013    constr:    0.0000
     atom:   20    charge:    3.9628    magn:    1.0750    constr:    0.0000
     atom:   21    charge:    3.9601    magn:    1.1007    constr:    0.0000
     atom:   22    charge:    3.9597    magn:    1.0979    constr:    0.0000
     atom:   23    charge:    3.9549    magn:    1.1013    constr:    0.0000
     atom:   24    charge:    3.9628    magn:    1.0750    constr:    0.0000
     atom:   25    charge:    3.9601    magn:    1.1007    constr:    0.0000
     atom:   26    charge:    3.9597    magn:    1.0979    constr:    0.0000
     atom:   27    charge:    3.9549    magn:    1.1013    constr:    0.0000
     atom:   28    charge:    3.9628    magn:    1.0750    constr:    0.0000
     atom:   29    charge:    3.9601    magn:    1.1007    constr:    0.0000
     atom:   30    charge:    3.9597    magn:    1.0979    constr:    0.0000
     atom:   31    charge:    3.9549    magn:    1.1013    constr:    0.0000
     atom:   32    charge:    3.9628    magn:    1.0750    constr:    0.0000
     atom:   33    charge:    3.9601    magn:    1.1007    constr:    0.0000
     atom:   34    charge:    3.9597    magn:    1.0979    constr:    0.0000
     atom:   35    charge:    3.9549    magn:    1.1013    constr:    0.0000
     atom:   36    charge:    3.9628    magn:    1.0750    constr:    0.0000
     atom:   37    charge:    0.5818    magn:    0.3967    constr:    0.0000
     atom:   38    charge:    0.5818    magn:    0.3967    constr:    0.0000
     atom:   39    charge:    0.5818    magn:    0.3967    constr:    0.0000
     atom:   40    charge:    0.5818    magn:    0.3967    constr:    0.0000
     atom:   41    charge:    0.5818    magn:    0.3967    constr:    0.0000
     atom:   42    charge:    0.5818    magn:    0.3967    constr:    0.0000
     atom:   43    charge:    0.5818    magn:    0.3967    constr:    0.0000
     atom:   44    charge:    0.5818    magn:    0.3967    constr:    0.0000
     atom:   45    charge:    0.5818    magn:    0.3967    constr:    0.0000

     total cpu time spent up to now is      338.8 secs

     total energy              =   -3724.31733706 Ry
     Harris-Foulkes estimate   =   -3726.51179620 Ry
     estimated scf accuracy    <     131.29126974 Ry

     total magnetization       =    54.03 Bohr mag/cell
     absolute magnetization    =    54.07 Bohr mag/cell

     iteration #  4     ecut=    44.10 Ry     beta=0.10
     Davidson diagonalization with overlap
     ethr =  3.10E-03,  avg # of iterations =  1.2

     negative rho (up, down):  2.670E-04 2.030E-04
 
     Adding external electric field

     Computed dipole along edir(3) : 
        Dipole               -0.3432 Ry au,         -0.8723 Debye
        Dipole field         -0.0006 Ry au
 
        Potential amp.        0.0477 Ry
        Total length         38.9923 bohr
 
 
     Adding external electric field

     Computed dipole along edir(3) : 
        Dipole               -0.3432 Ry au,         -0.8723 Debye
        Dipole field         -0.0006 Ry au
 
        Potential amp.        0.0477 Ry
        Total length         38.9923 bohr
 
 
     Magnetic moment per site:
     atom:    1    charge:    3.9690    magn:    1.0682    constr:    0.0000
     atom:    2    charge:    3.9540    magn:    1.0761    constr:    0.0000
     atom:    3    charge:    3.9615    magn:    1.0699    constr:    0.0000
     atom:    4    charge:    3.9589    magn:    1.0386    constr:    0.0000
     atom:    5    charge:    3.9690    magn:    1.0682    constr:    0.0000
     atom:    6    charge:    3.9540    magn:    1.0761    constr:    0.0000
     atom:    7    charge:    3.9615    magn:    1.0700    constr:    0.0000
     atom:    8    charge:    3.9589    magn:    1.0386    constr:    0.0000
     atom:    9    charge:    3.9690    magn:    1.0682    constr:    0.0000
     atom:   10    charge:    3.9540    magn:    1.0761    constr:    0.0000
     atom:   11    charge:    3.9615    magn:    1.0700    constr:    0.0000
     atom:   12    charge:    3.9589    magn:    1.0386    constr:    0.0000
     atom:   13    charge:    3.9690    magn:    1.0682    constr:    0.0000
     atom:   14    charge:    3.9540    magn:    1.0761    constr:    0.0000
     atom:   15    charge:    3.9615    magn:    1.0700    constr:    0.0000
     atom:   16    charge:    3.9589    magn:    1.0386    constr:    0.0000
     atom:   17    charge:    3.9690    magn:    1.0682    constr:    0.0000
     atom:   18    charge:    3.9540    magn:    1.0761    constr:    0.0000
     atom:   19    charge:    3.9615    magn:    1.0700    constr:    0.0000
     atom:   20    charge:    3.9589    magn:    1.0386    constr:    0.0000
     atom:   21    charge:    3.9690    magn:    1.0682    constr:    0.0000
     atom:   22    charge:    3.9540    magn:    1.0761    constr:    0.0000
     atom:   23    charge:    3.9615    magn:    1.0699    constr:    0.0000
     atom:   24    charge:    3.9589    magn:    1.0386    constr:    0.0000
     atom:   25    charge:    3.9690    magn:    1.0682    constr:    0.0000
     atom:   26    charge:    3.9540    magn:    1.0761    constr:    0.0000
     atom:   27    charge:    3.9615    magn:    1.0700    constr:    0.0000
     atom:   28    charge:    3.9589    magn:    1.0386    constr:    0.0000
     atom:   29    charge:    3.9690    magn:    1.0682    constr:    0.0000
     atom:   30    charge:    3.9540    magn:    1.0761    constr:    0.0000
     atom:   31    charge:    3.9615    magn:    1.0700    constr:    0.0000
     atom:   32    charge:    3.9589    magn:    1.0386    constr:    0.0000
     atom:   33    charge:    3.9690    magn:    1.0682    constr:    0.0000
     atom:   34    charge:    3.9540    magn:    1.0761    constr:    0.0000
     atom:   35    charge:    3.9615    magn:    1.0700    constr:    0.0000
     atom:   36    charge:    3.9589    magn:    1.0386    constr:    0.0000
     atom:   37    charge:    0.5838    magn:    0.3886    constr:    0.0000
     atom:   38    charge:    0.5838    magn:    0.3886    constr:    0.0000
     atom:   39    charge:    0.5838    magn:    0.3886    constr:    0.0000
     atom:   40    charge:    0.5838    magn:    0.3886    constr:    0.0000
     atom:   41    charge:    0.5838    magn:    0.3886    constr:    0.0000
     atom:   42    charge:    0.5838    magn:    0.3886    constr:    0.0000
     atom:   43    charge:    0.5838    magn:    0.3886    constr:    0.0000
     atom:   44    charge:    0.5838    magn:    0.3886    constr:    0.0000
     atom:   45    charge:    0.5838    magn:    0.3886    constr:    0.0000

     total cpu time spent up to now is      412.5 secs

     total energy              =   -3725.76053159 Ry
     Harris-Foulkes estimate   =   -3725.77106113 Ry
     estimated scf accuracy    <      15.48752431 Ry

     total magnetization       =    40.65 Bohr mag/cell
     absolute magnetization    =    40.76 Bohr mag/cell

     iteration #  5     ecut=    44.10 Ry     beta=0.10
     Davidson diagonalization with overlap
     ethr =  3.10E-03,  avg # of iterations =  1.0

     negative rho (up, down):  2.466E-04 1.705E-04
 
     Adding external electric field

     Computed dipole along edir(3) : 
        Dipole               -0.6693 Ry au,         -1.7011 Debye
        Dipole field         -0.0012 Ry au
 
        Potential amp.        0.0931 Ry
        Total length         38.9923 bohr
 
 
     Adding external electric field

     Computed dipole along edir(3) : 
        Dipole               -0.6693 Ry au,         -1.7011 Debye
        Dipole field         -0.0012 Ry au
 
        Potential amp.        0.0931 Ry
        Total length         38.9923 bohr
 
 
     Magnetic moment per site:
     atom:    1    charge:    3.9832    magn:    0.9427    constr:    0.0000
     atom:    2    charge:    3.9613    magn:    0.9527    constr:    0.0000
     atom:    3    charge:    3.9657    magn:    0.9472    constr:    0.0000
     atom:    4    charge:    3.9541    magn:    0.8660    constr:    0.0000
     atom:    5    charge:    3.9832    magn:    0.9427    constr:    0.0000
     atom:    6    charge:    3.9613    magn:    0.9527    constr:    0.0000
     atom:    7    charge:    3.9657    magn:    0.9472    constr:    0.0000
     atom:    8    charge:    3.9541    magn:    0.8660    constr:    0.0000
     atom:    9    charge:    3.9832    magn:    0.9427    constr:    0.0000
     atom:   10    charge:    3.9613    magn:    0.9527    constr:    0.0000
     atom:   11    charge:    3.9657    magn:    0.9472    constr:    0.0000
     atom:   12    charge:    3.9541    magn:    0.8660    constr:    0.0000
     atom:   13    charge:    3.9832    magn:    0.9427    constr:    0.0000
     atom:   14    charge:    3.9613    magn:    0.9527    constr:    0.0000
     atom:   15    charge:    3.9657    magn:    0.9472    constr:    0.0000
     atom:   16    charge:    3.9541    magn:    0.8660    constr:    0.0000
     atom:   17    charge:    3.9832    magn:    0.9427    constr:    0.0000
     atom:   18    charge:    3.9613    magn:    0.9527    constr:    0.0000
     atom:   19    charge:    3.9657    magn:    0.9472    constr:    0.0000
     atom:   20    charge:    3.9541    magn:    0.8660    constr:    0.0000
     atom:   21    charge:    3.9832    magn:    0.9427    constr:    0.0000
     atom:   22    charge:    3.9613    magn:    0.9526    constr:    0.0000
     atom:   23    charge:    3.9657    magn:    0.9472    constr:    0.0000
     atom:   24    charge:    3.9541    magn:    0.8660    constr:    0.0000
     atom:   25    charge:    3.9832    magn:    0.9427    constr:    0.0000
     atom:   26    charge:    3.9613    magn:    0.9527    constr:    0.0000
     atom:   27    charge:    3.9657    magn:    0.9472    constr:    0.0000
     atom:   28    charge:    3.9541    magn:    0.8659    constr:    0.0000
     atom:   29    charge:    3.9832    magn:    0.9427    constr:    0.0000
     atom:   30    charge:    3.9613    magn:    0.9527    constr:    0.0000
     atom:   31    charge:    3.9657    magn:    0.9472    constr:    0.0000
     atom:   32    charge:    3.9541    magn:    0.8659    constr:    0.0000
     atom:   33    charge:    3.9832    magn:    0.9427    constr:    0.0000
     atom:   34    charge:    3.9613    magn:    0.9527    constr:    0.0000
     atom:   35    charge:    3.9657    magn:    0.9472    constr:    0.0000
     atom:   36    charge:    3.9541    magn:    0.8660    constr:    0.0000
     atom:   37    charge:    0.5924    magn:    0.3515    constr:    0.0000
     atom:   38    charge:    0.5925    magn:    0.3515    constr:    0.0000
     atom:   39    charge:    0.5924    magn:    0.3515    constr:    0.0000
     atom:   40    charge:    0.5924    magn:    0.3515    constr:    0.0000
     atom:   41    charge:    0.5924    magn:    0.3515    constr:    0.0000
     atom:   42    charge:    0.5924    magn:    0.3515    constr:    0.0000
     atom:   43    charge:    0.5924    magn:    0.3515    constr:    0.0000
     atom:   44    charge:    0.5924    magn:    0.3515    constr:    0.0000
     atom:   45    charge:    0.5924    magn:    0.3515    constr:    0.0000

     total cpu time spent up to now is      485.0 secs

     total energy              =   -3726.64373840 Ry
     Harris-Foulkes estimate   =   -3725.89541922 Ry
     estimated scf accuracy    <       4.30105292 Ry

     total magnetization       =    41.34 Bohr mag/cell
     absolute magnetization    =    41.51 Bohr mag/cell

     iteration #  6     ecut=    44.10 Ry     beta=0.10
     Davidson diagonalization with overlap
     ethr =  1.09E-03,  avg # of iterations =  3.6

     negative rho (up, down):  2.506E-04 1.797E-04
 
     Adding external electric field

     Computed dipole along edir(3) : 
        Dipole               -0.5654 Ry au,         -1.4371 Debye
        Dipole field         -0.0010 Ry au
 
        Potential amp.        0.0786 Ry
        Total length         38.9923 bohr
 
 
     Adding external electric field

     Computed dipole along edir(3) : 
        Dipole               -0.5654 Ry au,         -1.4371 Debye
        Dipole field         -0.0010 Ry au
 
        Potential amp.        0.0786 Ry
        Total length         38.9923 bohr
 
 
     Magnetic moment per site:
     atom:    1    charge:    3.9793    magn:    0.8590    constr:    0.0000
     atom:    2    charge:    3.9627    magn:    0.8662    constr:    0.0000
     atom:    3    charge:    3.9683    magn:    0.8575    constr:    0.0000
     atom:    4    charge:    3.9557    magn:    0.7351    constr:    0.0000
     atom:    5    charge:    3.9793    magn:    0.8590    constr:    0.0000
     atom:    6    charge:    3.9627    magn:    0.8662    constr:    0.0000
     atom:    7    charge:    3.9683    magn:    0.8575    constr:    0.0000
     atom:    8    charge:    3.9557    magn:    0.7351    constr:    0.0000
     atom:    9    charge:    3.9793    magn:    0.8590    constr:    0.0000
     atom:   10    charge:    3.9627    magn:    0.8662    constr:    0.0000
     atom:   11    charge:    3.9683    magn:    0.8575    constr:    0.0000
     atom:   12    charge:    3.9557    magn:    0.7351    constr:    0.0000
     atom:   13    charge:    3.9793    magn:    0.8590    constr:    0.0000
     atom:   14    charge:    3.9627    magn:    0.8662    constr:    0.0000
     atom:   15    charge:    3.9683    magn:    0.8575    constr:    0.0000
     atom:   16    charge:    3.9557    magn:    0.7351    constr:    0.0000
     atom:   17    charge:    3.9793    magn:    0.8590    constr:    0.0000
     atom:   18    charge:    3.9627    magn:    0.8662    constr:    0.0000
     atom:   19    charge:    3.9683    magn:    0.8575    constr:    0.0000
     atom:   20    charge:    3.9557    magn:    0.7351    constr:    0.0000
     atom:   21    charge:    3.9793    magn:    0.8590    constr:    0.0000
     atom:   22    charge:    3.9627    magn:    0.8662    constr:    0.0000
     atom:   23    charge:    3.9683    magn:    0.8575    constr:    0.0000
     atom:   24    charge:    3.9557    magn:    0.7351    constr:    0.0000
     atom:   25    charge:    3.9793    magn:    0.8590    constr:    0.0000
     atom:   26    charge:    3.9627    magn:    0.8662    constr:    0.0000
     atom:   27    charge:    3.9683    magn:    0.8575    constr:    0.0000
     atom:   28    charge:    3.9557    magn:    0.7351    constr:    0.0000
     atom:   29    charge:    3.9793    magn:    0.8590    constr:    0.0000
     atom:   30    charge:    3.9627    magn:    0.8662    constr:    0.0000
     atom:   31    charge:    3.9683    magn:    0.8575    constr:    0.0000
     atom:   32    charge:    3.9557    magn:    0.7351    constr:    0.0000
     atom:   33    charge:    3.9793    magn:    0.8590    constr:    0.0000
     atom:   34    charge:    3.9627    magn:    0.8662    constr:    0.0000
     atom:   35    charge:    3.9683    magn:    0.8575    constr:    0.0000
     atom:   36    charge:    3.9557    magn:    0.7351    constr:    0.0000
     atom:   37    charge:    0.5959    magn:    0.3219    constr:    0.0000
     atom:   38    charge:    0.5959    magn:    0.3219    constr:    0.0000
     atom:   39    charge:    0.5959    magn:    0.3219    constr:    0.0000
     atom:   40    charge:    0.5959    magn:    0.3220    constr:    0.0000
     atom:   41    charge:    0.5959    magn:    0.3219    constr:    0.0000
     atom:   42    charge:    0.5959    magn:    0.3219    constr:    0.0000
     atom:   43    charge:    0.5959    magn:    0.3219    constr:    0.0000
     atom:   44    charge:    0.5959    magn:    0.3220    constr:    0.0000
     atom:   45    charge:    0.5959    magn:    0.3219    constr:    0.0000

     total cpu time spent up to now is      569.8 secs

     total energy              =   -3727.23543541 Ry
     Harris-Foulkes estimate   =   -3726.74345011 Ry
     estimated scf accuracy    <       2.65402660 Ry

     total magnetization       =    40.10 Bohr mag/cell
     absolute magnetization    =    40.57 Bohr mag/cell

     iteration #  7     ecut=    44.10 Ry     beta=0.10
     Davidson diagonalization with overlap
     ethr =  6.70E-04,  avg # of iterations =  4.3

     negative rho (up, down):  4.859E-04 4.424E-04
 
     Adding external electric field

     Computed dipole along edir(3) : 
        Dipole               -0.1041 Ry au,         -0.2645 Debye
        Dipole field         -0.0002 Ry au
 
        Potential amp.        0.0145 Ry
        Total length         38.9923 bohr
 
 
     Adding external electric field

     Computed dipole along edir(3) : 
        Dipole               -0.1041 Ry au,         -0.2645 Debye
        Dipole field         -0.0002 Ry au
 
        Potential amp.        0.0145 Ry
        Total length         38.9923 bohr
 
 
     Magnetic moment per site:
     atom:    1    charge:    3.9659    magn:    0.5906    constr:    0.0000
     atom:    2    charge:    3.9643    magn:    0.5969    constr:    0.0000
     atom:    3    charge:    3.9711    magn:    0.5761    constr:    0.0000
     atom:    4    charge:    3.9533    magn:    0.3170    constr:    0.0000
     atom:    5    charge:    3.9661    magn:    0.5905    constr:    0.0000
     atom:    6    charge:    3.9644    magn:    0.5969    constr:    0.0000
     atom:    7    charge:    3.9710    magn:    0.5762    constr:    0.0000
     atom:    8    charge:    3.9533    magn:    0.3170    constr:    0.0000
     atom:    9    charge:    3.9660    magn:    0.5906    constr:    0.0000
     atom:   10    charge:    3.9642    magn:    0.5970    constr:    0.0000
     atom:   11    charge:    3.9711    magn:    0.5761    constr:    0.0000
     atom:   12    charge:    3.9533    magn:    0.3170    constr:    0.0000
     atom:   13    charge:    3.9659    magn:    0.5906    constr:    0.0000
     atom:   14    charge:    3.9643    magn:    0.5969    constr:    0.0000
     atom:   15    charge:    3.9709    magn:    0.5763    constr:    0.0000
     atom:   16    charge:    3.9533    magn:    0.3170    constr:    0.0000
     atom:   17    charge:    3.9660    magn:    0.5905    constr:    0.0000
     atom:   18    charge:    3.9642    magn:    0.5969    constr:    0.0000
     atom:   19    charge:    3.9711    magn:    0.5761    constr:    0.0000
     atom:   20    charge:    3.9533    magn:    0.3170    constr:    0.0000
     atom:   21    charge:    3.9658    magn:    0.5907    constr:    0.0000
     atom:   22    charge:    3.9644    magn:    0.5968    constr:    0.0000
     atom:   23    charge:    3.9710    magn:    0.5762    constr:    0.0000
     atom:   24    charge:    3.9533    magn:    0.3170    constr:    0.0000
     atom:   25    charge:    3.9661    magn:    0.5905    constr:    0.0000
     atom:   26    charge:    3.9644    magn:    0.5968    constr:    0.0000
     atom:   27    charge:    3.9710    magn:    0.5762    constr:    0.0000
     atom:   28    charge:    3.9533    magn:    0.3170    constr:    0.0000
     atom:   29    charge:    3.9658    magn:    0.5906    constr:    0.0000
     atom:   30    charge:    3.9644    magn:    0.5968    constr:    0.0000
     atom:   31    charge:    3.9710    magn:    0.5762    constr:    0.0000
     atom:   32    charge:    3.9533    magn:    0.3170    constr:    0.0000
     atom:   33    charge:    3.9659    magn:    0.5906    constr:    0.0000
     atom:   34    charge:    3.9642    magn:    0.5969    constr:    0.0000
     atom:   35    charge:    3.9712    magn:    0.5760    constr:    0.0000
     atom:   36    charge:    3.9533    magn:    0.3170    constr:    0.0000
     atom:   37    charge:    0.6058    magn:    0.2229    constr:    0.0000
     atom:   38    charge:    0.6059    magn:    0.2229    constr:    0.0000
     atom:   39    charge:    0.6059    magn:    0.2229    constr:    0.0000
     atom:   40    charge:    0.6059    magn:    0.2230    constr:    0.0000
     atom:   41    charge:    0.6058    magn:    0.2229    constr:    0.0000
     atom:   42    charge:    0.6058    magn:    0.2229    constr:    0.0000
     atom:   43    charge:    0.6059    magn:    0.2229    constr:    0.0000
     atom:   44    charge:    0.6058    magn:    0.2229    constr:    0.0000
     atom:   45    charge:    0.6058    magn:    0.2229    constr:    0.0000

     total cpu time spent up to now is      656.9 secs

     total energy              =   -3728.16012764 Ry
     Harris-Foulkes estimate   =   -3727.27037334 Ry
     estimated scf accuracy    <       1.25672588 Ry

     total magnetization       =    38.25 Bohr mag/cell
     absolute magnetization    =    39.00 Bohr mag/cell

     iteration #  8     ecut=    44.10 Ry     beta=0.10
     Davidson diagonalization with overlap
     ethr =  3.17E-04,  avg # of iterations =  7.3

     negative rho (up, down):  5.772E-04 5.192E-04
 
     Adding external electric field

     Computed dipole along edir(3) : 
        Dipole               -0.3883 Ry au,         -0.9871 Debye
        Dipole field         -0.0007 Ry au
 
        Potential amp.        0.0540 Ry
        Total length         38.9923 bohr
 
 
     Adding external electric field

     Computed dipole along edir(3) : 
        Dipole               -0.3883 Ry au,         -0.9871 Debye
        Dipole field         -0.0007 Ry au
 
        Potential amp.        0.0540 Ry
        Total length         38.9923 bohr
 
 
     Magnetic moment per site:
     atom:    1    charge:    3.9578    magn:    0.4882    constr:    0.0000
     atom:    2    charge:    3.9746    magn:    0.4824    constr:    0.0000
     atom:    3    charge:    3.9729    magn:    0.4574    constr:    0.0000
     atom:    4    charge:    3.9548    magn:    0.1492    constr:    0.0000
     atom:    5    charge:    3.9571    magn:    0.4888    constr:    0.0000
     atom:    6    charge:    3.9744    magn:    0.4825    constr:    0.0000
     atom:    7    charge:    3.9736    magn:    0.4570    constr:    0.0000
     atom:    8    charge:    3.9548    magn:    0.1492    constr:    0.0000
     atom:    9    charge:    3.9582    magn:    0.4879    constr:    0.0000
     atom:   10    charge:    3.9752    magn:    0.4821    constr:    0.0000
     atom:   11    charge:    3.9731    magn:    0.4572    constr:    0.0000
     atom:   12    charge:    3.9549    magn:    0.1491    constr:    0.0000
     atom:   13    charge:    3.9585    magn:    0.4877    constr:    0.0000
     atom:   14    charge:    3.9746    magn:    0.4824    constr:    0.0000
     atom:   15    charge:    3.9739    magn:    0.4568    constr:    0.0000
     atom:   16    charge:    3.9549    magn:    0.1491    constr:    0.0000
     atom:   17    charge:    3.9580    magn:    0.4881    constr:    0.0000
     atom:   18    charge:    3.9751    magn:    0.4821    constr:    0.0000
     atom:   19    charge:    3.9732    magn:    0.4572    constr:    0.0000
     atom:   20    charge:    3.9547    magn:    0.1492    constr:    0.0000
     atom:   21    charge:    3.9592    magn:    0.4872    constr:    0.0000
     atom:   22    charge:    3.9744    magn:    0.4825    constr:    0.0000
     atom:   23    charge:    3.9735    magn:    0.4570    constr:    0.0000
     atom:   24    charge:    3.9548    magn:    0.1492    constr:    0.0000
     atom:   25    charge:    3.9571    magn:    0.4887    constr:    0.0000
     atom:   26    charge:    3.9738    magn:    0.4830    constr:    0.0000
     atom:   27    charge:    3.9734    magn:    0.4571    constr:    0.0000
     atom:   28    charge:    3.9548    magn:    0.1492    constr:    0.0000
     atom:   29    charge:    3.9587    magn:    0.4876    constr:    0.0000
     atom:   30    charge:    3.9743    magn:    0.4826    constr:    0.0000
     atom:   31    charge:    3.9736    magn:    0.4569    constr:    0.0000
     atom:   32    charge:    3.9548    magn:    0.1492    constr:    0.0000
     atom:   33    charge:    3.9583    magn:    0.4878    constr:    0.0000
     atom:   34    charge:    3.9750    magn:    0.4822    constr:    0.0000
     atom:   35    charge:    3.9726    magn:    0.4575    constr:    0.0000
     atom:   36    charge:    3.9546    magn:    0.1492    constr:    0.0000
     atom:   37    charge:    0.6043    magn:    0.1760    constr:    0.0000
     atom:   38    charge:    0.6043    magn:    0.1760    constr:    0.0000
     atom:   39    charge:    0.6043    magn:    0.1761    constr:    0.0000
     atom:   40    charge:    0.6043    magn:    0.1761    constr:    0.0000
     atom:   41    charge:    0.6043    magn:    0.1761    constr:    0.0000
     atom:   42    charge:    0.6043    magn:    0.1760    constr:    0.0000
     atom:   43    charge:    0.6043    magn:    0.1761    constr:    0.0000
     atom:   44    charge:    0.6043    magn:    0.1761    constr:    0.0000
     atom:   45    charge:    0.6043    magn:    0.1761    constr:    0.0000

     total cpu time spent up to now is      765.5 secs

     total energy              =   -3728.36733077 Ry
     Harris-Foulkes estimate   =   -3728.36763352 Ry
     estimated scf accuracy    <       2.17362748 Ry

     total magnetization       =    27.06 Bohr mag/cell
     absolute magnetization    =    29.77 Bohr mag/cell

     iteration #  9     ecut=    44.10 Ry     beta=0.10
     Davidson diagonalization with overlap
     ethr =  3.17E-04,  avg # of iterations =  2.1

     negative rho (up, down):  5.927E-04 5.319E-04
 
     Adding external electric field

     Computed dipole along edir(3) : 
        Dipole               -0.3684 Ry au,         -0.9363 Debye
        Dipole field         -0.0007 Ry au
 
        Potential amp.        0.0512 Ry
        Total length         38.9923 bohr
 
 
     Adding external electric field

     Computed dipole along edir(3) : 
        Dipole               -0.3684 Ry au,         -0.9363 Debye
        Dipole field         -0.0007 Ry au
 
        Potential amp.        0.0512 Ry
        Total length         38.9923 bohr
 
 
     Magnetic moment per site:
     atom:    1    charge:    3.9705    magn:    0.4318    constr:    0.0000
     atom:    2    charge:    3.9728    magn:    0.4303    constr:    0.0000
     atom:    3    charge:    3.9752    magn:    0.3954    constr:    0.0000
     atom:    4    charge:    3.9574    magn:    0.0707    constr:    0.0000
     atom:    5    charge:    3.9705    magn:    0.4320    constr:    0.0000
     atom:    6    charge:    3.9733    magn:    0.4301    constr:    0.0000
     atom:    7    charge:    3.9737    magn:    0.3962    constr:    0.0000
     atom:    8    charge:    3.9574    magn:    0.0708    constr:    0.0000
     atom:    9    charge:    3.9698    magn:    0.4322    constr:    0.0000
     atom:   10    charge:    3.9714    magn:    0.4313    constr:    0.0000
     atom:   11    charge:    3.9742    magn:    0.3959    constr:    0.0000
     atom:   12    charge:    3.9574    magn:    0.0707    constr:    0.0000
     atom:   13    charge:    3.9698    magn:    0.4321    constr:    0.0000
     atom:   14    charge:    3.9726    magn:    0.4305    constr:    0.0000
     atom:   15    charge:    3.9730    magn:    0.3966    constr:    0.0000
     atom:   16    charge:    3.9573    magn:    0.0707    constr:    0.0000
     atom:   17    charge:    3.9700    magn:    0.4321    constr:    0.0000
     atom:   18    charge:    3.9716    magn:    0.4312    constr:    0.0000
     atom:   19    charge:    3.9742    magn:    0.3959    constr:    0.0000
     atom:   20    charge:    3.9575    magn:    0.0707    constr:    0.0000
     atom:   21    charge:    3.9698    magn:    0.4319    constr:    0.0000
     atom:   22    charge:    3.9732    magn:    0.4301    constr:    0.0000
     atom:   23    charge:    3.9737    magn:    0.3961    constr:    0.0000
     atom:   24    charge:    3.9575    magn:    0.0707    constr:    0.0000
     atom:   25    charge:    3.9704    magn:    0.4321    constr:    0.0000
     atom:   26    charge:    3.9751    magn:    0.4288    constr:    0.0000
     atom:   27    charge:    3.9742    magn:    0.3959    constr:    0.0000
     atom:   28    charge:    3.9575    magn:    0.0707    constr:    0.0000
     atom:   29    charge:    3.9700    magn:    0.4319    constr:    0.0000
     atom:   30    charge:    3.9731    magn:    0.4301    constr:    0.0000
     atom:   31    charge:    3.9735    magn:    0.3963    constr:    0.0000
     atom:   32    charge:    3.9574    magn:    0.0707    constr:    0.0000
     atom:   33    charge:    3.9699    magn:    0.4321    constr:    0.0000
     atom:   34    charge:    3.9724    magn:    0.4306    constr:    0.0000
     atom:   35    charge:    3.9755    magn:    0.3952    constr:    0.0000
     atom:   36    charge:    3.9576    magn:    0.0707    constr:    0.0000
     atom:   37    charge:    0.6027    magn:    0.1533    constr:    0.0000
     atom:   38    charge:    0.6027    magn:    0.1533    constr:    0.0000
     atom:   39    charge:    0.6027    magn:    0.1533    constr:    0.0000
     atom:   40    charge:    0.6027    magn:    0.1533    constr:    0.0000
     atom:   41    charge:    0.6027    magn:    0.1533    constr:    0.0000
     atom:   42    charge:    0.6027    magn:    0.1533    constr:    0.0000
     atom:   43    charge:    0.6027    magn:    0.1533    constr:    0.0000
     atom:   44    charge:    0.6027    magn:    0.1533    constr:    0.0000
     atom:   45    charge:    0.6027    magn:    0.1533    constr:    0.0000

     total cpu time spent up to now is      842.4 secs

     total energy              =   -3728.45968667 Ry
     Harris-Foulkes estimate   =   -3728.62929417 Ry
     estimated scf accuracy    <       9.79531605 Ry

     total magnetization       =    22.61 Bohr mag/cell
     absolute magnetization    =    26.15 Bohr mag/cell

     iteration # 10     ecut=    44.10 Ry     beta=0.10
     Davidson diagonalization with overlap
     ethr =  3.17E-04,  avg # of iterations =  1.0

     negative rho (up, down):  5.480E-04 4.953E-04
 
     Adding external electric field

     Computed dipole along edir(3) : 
        Dipole               -0.4088 Ry au,         -1.0390 Debye
        Dipole field         -0.0007 Ry au
 
        Potential amp.        0.0568 Ry
        Total length         38.9923 bohr
 
 
     Adding external electric field

     Computed dipole along edir(3) : 
        Dipole               -0.4088 Ry au,         -1.0390 Debye
        Dipole field         -0.0007 Ry au
 
        Potential amp.        0.0568 Ry
        Total length         38.9923 bohr
 
 
     Magnetic moment per site:
     atom:    1    charge:    3.9773    magn:    0.4092    constr:    0.0000
     atom:    2    charge:    3.9710    magn:    0.4095    constr:    0.0000
     atom:    3    charge:    3.9719    magn:    0.3659    constr:    0.0000
     atom:    4    charge:    3.9600    magn:    0.0394    constr:    0.0000
     atom:    5    charge:    3.9777    magn:    0.4093    constr:    0.0000
     atom:    6    charge:    3.9706    magn:    0.4098    constr:    0.0000
     atom:    7    charge:    3.9731    magn:    0.3655    constr:    0.0000
     atom:    8    charge:    3.9600    magn:    0.0394    constr:    0.0000
     atom:    9    charge:    3.9784    magn:    0.4083    constr:    0.0000
     atom:   10    charge:    3.9716    magn:    0.4093    constr:    0.0000
     atom:   11    charge:    3.9733    magn:    0.3653    constr:    0.0000
     atom:   12    charge:    3.9601    magn:    0.0394    constr:    0.0000
     atom:   13    charge:    3.9782    magn:    0.4083    constr:    0.0000
     atom:   14    charge:    3.9713    magn:    0.4094    constr:    0.0000
     atom:   15    charge:    3.9734    magn:    0.3655    constr:    0.0000
     atom:   16    charge:    3.9600    magn:    0.0394    constr:    0.0000
     atom:   17    charge:    3.9781    magn:    0.4086    constr:    0.0000
     atom:   18    charge:    3.9717    magn:    0.4092    constr:    0.0000
     atom:   19    charge:    3.9731    magn:    0.3654    constr:    0.0000
     atom:   20    charge:    3.9601    magn:    0.0394    constr:    0.0000
     atom:   21    charge:    3.9775    magn:    0.4085    constr:    0.0000
     atom:   22    charge:    3.9708    magn:    0.4097    constr:    0.0000
     atom:   23    charge:    3.9733    magn:    0.3654    constr:    0.0000
     atom:   24    charge:    3.9599    magn:    0.0394    constr:    0.0000
     atom:   25    charge:    3.9778    magn:    0.4092    constr:    0.0000
     atom:   26    charge:    3.9689    magn:    0.4108    constr:    0.0000
     atom:   27    charge:    3.9724    magn:    0.3658    constr:    0.0000
     atom:   28    charge:    3.9599    magn:    0.0394    constr:    0.0000
     atom:   29    charge:    3.9777    magn:    0.4085    constr:    0.0000
     atom:   30    charge:    3.9711    magn:    0.4094    constr:    0.0000
     atom:   31    charge:    3.9734    magn:    0.3654    constr:    0.0000
     atom:   32    charge:    3.9601    magn:    0.0394    constr:    0.0000
     atom:   33    charge:    3.9780    magn:    0.4086    constr:    0.0000
     atom:   34    charge:    3.9708    magn:    0.4097    constr:    0.0000
     atom:   35    charge:    3.9719    magn:    0.3659    constr:    0.0000
     atom:   36    charge:    3.9599    magn:    0.0394    constr:    0.0000
     atom:   37    charge:    0.5991    magn:    0.1398    constr:    0.0000
     atom:   38    charge:    0.5991    magn:    0.1398    constr:    0.0000
     atom:   39    charge:    0.5991    magn:    0.1398    constr:    0.0000
     atom:   40    charge:    0.5991    magn:    0.1398    constr:    0.0000
     atom:   41    charge:    0.5991    magn:    0.1398    constr:    0.0000
     atom:   42    charge:    0.5991    magn:    0.1398    constr:    0.0000
     atom:   43    charge:    0.5991    magn:    0.1398    constr:    0.0000
     atom:   44    charge:    0.5991    magn:    0.1398    constr:    0.0000
     atom:   45    charge:    0.5991    magn:    0.1398    constr:    0.0000

     total cpu time spent up to now is      915.0 secs

     total energy              =   -3728.51424846 Ry
     Harris-Foulkes estimate   =   -3728.54999008 Ry
     estimated scf accuracy    <       0.48119846 Ry

     total magnetization       =    21.58 Bohr mag/cell
     absolute magnetization    =    25.39 Bohr mag/cell

     iteration # 11     ecut=    44.10 Ry     beta=0.10
     Davidson diagonalization with overlap
     ethr =  1.22E-04,  avg # of iterations =  1.1

     negative rho (up, down):  4.547E-04 4.247E-04
 
     Adding external electric field

     Computed dipole along edir(3) : 
        Dipole               -0.6871 Ry au,         -1.7465 Debye
        Dipole field         -0.0012 Ry au
 
        Potential amp.        0.0956 Ry
        Total length         38.9923 bohr
 
 
     Adding external electric field

     Computed dipole along edir(3) : 
        Dipole               -0.6871 Ry au,         -1.7465 Debye
        Dipole field         -0.0012 Ry au
 
        Potential amp.        0.0956 Ry
        Total length         38.9923 bohr
 
 
     Magnetic moment per site:
     atom:    1    charge:    3.9770    magn:    0.4036    constr:    0.0000
     atom:    2    charge:    3.9718    magn:    0.4013    constr:    0.0000
     atom:    3    charge:    3.9681    magn:    0.3435    constr:    0.0000
     atom:    4    charge:    3.9636    magn:    0.0292    constr:    0.0000
     atom:    5    charge:    3.9769    magn:    0.4042    constr:    0.0000
     atom:    6    charge:    3.9717    magn:    0.4014    constr:    0.0000
     atom:    7    charge:    3.9684    magn:    0.3435    constr:    0.0000
     atom:    8    charge:    3.9636    magn:    0.0292    constr:    0.0000
     atom:    9    charge:    3.9744    magn:    0.4051    constr:    0.0000
     atom:   10    charge:    3.9724    magn:    0.4010    constr:    0.0000
     atom:   11    charge:    3.9678    magn:    0.3436    constr:    0.0000
     atom:   12    charge:    3.9635    magn:    0.0291    constr:    0.0000
     atom:   13    charge:    3.9744    magn:    0.4049    constr:    0.0000
     atom:   14    charge:    3.9717    magn:    0.4013    constr:    0.0000
     atom:   15    charge:    3.9687    magn:    0.3435    constr:    0.0000
     atom:   16    charge:    3.9636    magn:    0.0292    constr:    0.0000
     atom:   17    charge:    3.9752    magn:    0.4047    constr:    0.0000
     atom:   18    charge:    3.9721    magn:    0.4011    constr:    0.0000
     atom:   19    charge:    3.9681    magn:    0.3436    constr:    0.0000
     atom:   20    charge:    3.9636    magn:    0.0292    constr:    0.0000
     atom:   21    charge:    3.9756    magn:    0.4036    constr:    0.0000
     atom:   22    charge:    3.9718    magn:    0.4013    constr:    0.0000
     atom:   23    charge:    3.9683    magn:    0.3435    constr:    0.0000
     atom:   24    charge:    3.9636    magn:    0.0292    constr:    0.0000
     atom:   25    charge:    3.9766    magn:    0.4043    constr:    0.0000
     atom:   26    charge:    3.9710    magn:    0.4019    constr:    0.0000
     atom:   27    charge:    3.9687    magn:    0.3434    constr:    0.0000
     atom:   28    charge:    3.9637    magn:    0.0291    constr:    0.0000
     atom:   29    charge:    3.9748    magn:    0.4044    constr:    0.0000
     atom:   30    charge:    3.9714    magn:    0.4015    constr:    0.0000
     atom:   31    charge:    3.9683    magn:    0.3435    constr:    0.0000
     atom:   32    charge:    3.9636    magn:    0.0292    constr:    0.0000
     atom:   33    charge:    3.9753    magn:    0.4043    constr:    0.0000
     atom:   34    charge:    3.9722    magn:    0.4011    constr:    0.0000
     atom:   35    charge:    3.9678    magn:    0.3436    constr:    0.0000
     atom:   36    charge:    3.9636    magn:    0.0291    constr:    0.0000
     atom:   37    charge:    0.5900    magn:    0.1229    constr:    0.0000
     atom:   38    charge:    0.5900    magn:    0.1229    constr:    0.0000
     atom:   39    charge:    0.5900    magn:    0.1230    constr:    0.0000
     atom:   40    charge:    0.5900    magn:    0.1230    constr:    0.0000
     atom:   41    charge:    0.5900    magn:    0.1229    constr:    0.0000
     atom:   42    charge:    0.5900    magn:    0.1229    constr:    0.0000
     atom:   43    charge:    0.5900    magn:    0.1229    constr:    0.0000
     atom:   44    charge:    0.5900    magn:    0.1230    constr:    0.0000
     atom:   45    charge:    0.5900    magn:    0.1230    constr:    0.0000

     total cpu time spent up to now is      988.0 secs

     total energy              =   -3728.53045539 Ry
     Harris-Foulkes estimate   =   -3728.58920852 Ry
     estimated scf accuracy    <       6.53813233 Ry

     total magnetization       =    21.63 Bohr mag/cell
     absolute magnetization    =    25.36 Bohr mag/cell

     iteration # 12     ecut=    44.10 Ry     beta=0.10
     Davidson diagonalization with overlap
     ethr =  1.22E-04,  avg # of iterations =  7.1

     negative rho (up, down):  4.372E-04 3.963E-04
 
     Adding external electric field

     Computed dipole along edir(3) : 
        Dipole               -0.6242 Ry au,         -1.5865 Debye
        Dipole field         -0.0011 Ry au
 
        Potential amp.        0.0868 Ry
        Total length         38.9923 bohr
 
 
     Adding external electric field

     Computed dipole along edir(3) : 
        Dipole               -0.6242 Ry au,         -1.5865 Debye
        Dipole field         -0.0011 Ry au
 
        Potential amp.        0.0868 Ry
        Total length         38.9923 bohr
 
 
     Magnetic moment per site:
     atom:    1    charge:    3.9717    magn:    0.4056    constr:    0.0000
     atom:    2    charge:    3.9726    magn:    0.4009    constr:    0.0000
     atom:    3    charge:    3.9701    magn:    0.3463    constr:    0.0000
     atom:    4    charge:    3.9626    magn:    0.0289    constr:    0.0000
     atom:    5    charge:    3.9720    magn:    0.4058    constr:    0.0000
     atom:    6    charge:    3.9726    magn:    0.4010    constr:    0.0000
     atom:    7    charge:    3.9697    magn:    0.3466    constr:    0.0000
     atom:    8    charge:    3.9626    magn:    0.0290    constr:    0.0000
     atom:    9    charge:    3.9741    magn:    0.4039    constr:    0.0000
     atom:   10    charge:    3.9722    magn:    0.4012    constr:    0.0000
     atom:   11    charge:    3.9699    magn:    0.3463    constr:    0.0000
     atom:   12    charge:    3.9625    magn:    0.0289    constr:    0.0000
     atom:   13    charge:    3.9741    magn:    0.4037    constr:    0.0000
     atom:   14    charge:    3.9726    magn:    0.4009    constr:    0.0000
     atom:   15    charge:    3.9694    magn:    0.3468    constr:    0.0000
     atom:   16    charge:    3.9625    magn:    0.0289    constr:    0.0000
     atom:   17    charge:    3.9734    magn:    0.4045    constr:    0.0000
     atom:   18    charge:    3.9723    magn:    0.4010    constr:    0.0000
     atom:   19    charge:    3.9699    magn:    0.3464    constr:    0.0000
     atom:   20    charge:    3.9626    magn:    0.0289    constr:    0.0000
     atom:   21    charge:    3.9726    magn:    0.4043    constr:    0.0000
     atom:   22    charge:    3.9726    magn:    0.4009    constr:    0.0000
     atom:   23    charge:    3.9697    magn:    0.3466    constr:    0.0000
     atom:   24    charge:    3.9626    magn:    0.0289    constr:    0.0000
     atom:   25    charge:    3.9722    magn:    0.4057    constr:    0.0000
     atom:   26    charge:    3.9731    magn:    0.4008    constr:    0.0000
     atom:   27    charge:    3.9698    magn:    0.3465    constr:    0.0000
     atom:   28    charge:    3.9626    magn:    0.0289    constr:    0.0000
     atom:   29    charge:    3.9738    magn:    0.4038    constr:    0.0000
     atom:   30    charge:    3.9728    magn:    0.4007    constr:    0.0000
     atom:   31    charge:    3.9697    magn:    0.3466    constr:    0.0000
     atom:   32    charge:    3.9626    magn:    0.0289    constr:    0.0000
     atom:   33    charge:    3.9731    magn:    0.4044    constr:    0.0000
     atom:   34    charge:    3.9724    magn:    0.4010    constr:    0.0000
     atom:   35    charge:    3.9703    magn:    0.3462    constr:    0.0000
     atom:   36    charge:    3.9627    magn:    0.0289    constr:    0.0000
     atom:   37    charge:    0.5922    magn:    0.1256    constr:    0.0000
     atom:   38    charge:    0.5922    magn:    0.1256    constr:    0.0000
     atom:   39    charge:    0.5922    magn:    0.1256    constr:    0.0000
     atom:   40    charge:    0.5922    magn:    0.1257    constr:    0.0000
     atom:   41    charge:    0.5922    magn:    0.1256    constr:    0.0000
     atom:   42    charge:    0.5922    magn:    0.1256    constr:    0.0000
     atom:   43    charge:    0.5922    magn:    0.1256    constr:    0.0000
     atom:   44    charge:    0.5922    magn:    0.1257    constr:    0.0000
     atom:   45    charge:    0.5922    magn:    0.1257    constr:    0.0000

     total cpu time spent up to now is     1092.4 secs

     total energy              =   -3728.51425262 Ry
     Harris-Foulkes estimate   =   -3728.57113155 Ry
     estimated scf accuracy    <       2.51442113 Ry

     total magnetization       =    20.71 Bohr mag/cell
     absolute magnetization    =    24.22 Bohr mag/cell

     iteration # 13     ecut=    44.10 Ry     beta=0.10
     Davidson diagonalization with overlap
     ethr =  1.22E-04,  avg # of iterations =  1.1

     negative rho (up, down):  3.887E-04 3.458E-04
 
     Adding external electric field

     Computed dipole along edir(3) : 
        Dipole               -0.5176 Ry au,         -1.3155 Debye
        Dipole field         -0.0009 Ry au
 
        Potential amp.        0.0720 Ry
        Total length         38.9923 bohr
 
 
     Adding external electric field

     Computed dipole along edir(3) : 
        Dipole               -0.5176 Ry au,         -1.3155 Debye
        Dipole field         -0.0009 Ry au
 
        Potential amp.        0.0720 Ry
        Total length         38.9923 bohr
 
 
     Magnetic moment per site:
     atom:    1    charge:    3.9706    magn:    0.4241    constr:    0.0000
     atom:    2    charge:    3.9702    magn:    0.4215    constr:    0.0000
     atom:    3    charge:    3.9697    magn:    0.3651    constr:    0.0000
     atom:    4    charge:    3.9618    magn:    0.0592    constr:    0.0000
     atom:    5    charge:    3.9709    magn:    0.4242    constr:    0.0000
     atom:    6    charge:    3.9703    magn:    0.4215    constr:    0.0000
     atom:    7    charge:    3.9699    magn:    0.3651    constr:    0.0000
     atom:    8    charge:    3.9619    magn:    0.0592    constr:    0.0000
     atom:    9    charge:    3.9712    magn:    0.4234    constr:    0.0000
     atom:   10    charge:    3.9699    magn:    0.4218    constr:    0.0000
     atom:   11    charge:    3.9703    magn:    0.3648    constr:    0.0000
     atom:   12    charge:    3.9619    magn:    0.0592    constr:    0.0000
     atom:   13    charge:    3.9710    magn:    0.4234    constr:    0.0000
     atom:   14    charge:    3.9703    magn:    0.4215    constr:    0.0000
     atom:   15    charge:    3.9697    magn:    0.3653    constr:    0.0000
     atom:   16    charge:    3.9618    magn:    0.0592    constr:    0.0000
     atom:   17    charge:    3.9712    magn:    0.4235    constr:    0.0000
     atom:   18    charge:    3.9701    magn:    0.4216    constr:    0.0000
     atom:   19    charge:    3.9701    magn:    0.3650    constr:    0.0000
     atom:   20    charge:    3.9618    magn:    0.0592    constr:    0.0000
     atom:   21    charge:    3.9708    magn:    0.4233    constr:    0.0000
     atom:   22    charge:    3.9704    magn:    0.4215    constr:    0.0000
     atom:   23    charge:    3.9701    magn:    0.3650    constr:    0.0000
     atom:   24    charge:    3.9617    magn:    0.0592    constr:    0.0000
     atom:   25    charge:    3.9712    magn:    0.4240    constr:    0.0000
     atom:   26    charge:    3.9707    magn:    0.4214    constr:    0.0000
     atom:   27    charge:    3.9694    magn:    0.3653    constr:    0.0000
     atom:   28    charge:    3.9617    magn:    0.0592    constr:    0.0000
     atom:   29    charge:    3.9705    magn:    0.4237    constr:    0.0000
     atom:   30    charge:    3.9704    magn:    0.4215    constr:    0.0000
     atom:   31    charge:    3.9700    magn:    0.3651    constr:    0.0000
     atom:   32    charge:    3.9619    magn:    0.0592    constr:    0.0000
     atom:   33    charge:    3.9712    magn:    0.4234    constr:    0.0000
     atom:   34    charge:    3.9699    magn:    0.4218    constr:    0.0000
     atom:   35    charge:    3.9699    magn:    0.3650    constr:    0.0000
     atom:   36    charge:    3.9618    magn:    0.0592    constr:    0.0000
     atom:   37    charge:    0.5926    magn:    0.1325    constr:    0.0000
     atom:   38    charge:    0.5926    magn:    0.1325    constr:    0.0000
     atom:   39    charge:    0.5926    magn:    0.1325    constr:    0.0000
     atom:   40    charge:    0.5927    magn:    0.1326    constr:    0.0000
     atom:   41    charge:    0.5926    magn:    0.1325    constr:    0.0000
     atom:   42    charge:    0.5926    magn:    0.1325    constr:    0.0000
     atom:   43    charge:    0.5926    magn:    0.1325    constr:    0.0000
     atom:   44    charge:    0.5926    magn:    0.1326    constr:    0.0000
     atom:   45    charge:    0.5926    magn:    0.1326    constr:    0.0000

     total cpu time spent up to now is     1165.5 secs

     total energy              =   -3728.53245390 Ry
     Harris-Foulkes estimate   =   -3728.53891101 Ry
     estimated scf accuracy    <       0.11501083 Ry

     total magnetization       =    20.55 Bohr mag/cell
     absolute magnetization    =    24.15 Bohr mag/cell

     iteration # 14     ecut=    44.10 Ry     beta=0.10
     Davidson diagonalization with overlap
     ethr =  2.90E-05,  avg # of iterations =  6.0

     negative rho (up, down):  3.741E-04 3.375E-04
 
     Adding external electric field

     Computed dipole along edir(3) : 
        Dipole               -0.5862 Ry au,         -1.4899 Debye
        Dipole field         -0.0010 Ry au
 
        Potential amp.        0.0815 Ry
        Total length         38.9923 bohr
 
 
     Adding external electric field

     Computed dipole along edir(3) : 
        Dipole               -0.5862 Ry au,         -1.4899 Debye
        Dipole field         -0.0010 Ry au
 
        Potential amp.        0.0815 Ry
        Total length         38.9923 bohr
 
 
     Magnetic moment per site:
     atom:    1    charge:    3.9718    magn:    0.4034    constr:    0.0000
     atom:    2    charge:    3.9698    magn:    0.4009    constr:    0.0000
     atom:    3    charge:    3.9702    magn:    0.3337    constr:    0.0000
     atom:    4    charge:    3.9614    magn:    0.0287    constr:    0.0000
     atom:    5    charge:    3.9717    magn:    0.4038    constr:    0.0000
     atom:    6    charge:    3.9696    magn:    0.4010    constr:    0.0000
     atom:    7    charge:    3.9697    magn:    0.3341    constr:    0.0000
     atom:    8    charge:    3.9613    magn:    0.0287    constr:    0.0000
     atom:    9    charge:    3.9715    magn:    0.4032    constr:    0.0000
     atom:   10    charge:    3.9698    magn:    0.4009    constr:    0.0000
     atom:   11    charge:    3.9695    magn:    0.3340    constr:    0.0000
     atom:   12    charge:    3.9613    magn:    0.0287    constr:    0.0000
     atom:   13    charge:    3.9716    magn:    0.4030    constr:    0.0000
     atom:   14    charge:    3.9699    magn:    0.4008    constr:    0.0000
     atom:   15    charge:    3.9697    magn:    0.3342    constr:    0.0000
     atom:   16    charge:    3.9614    magn:    0.0287    constr:    0.0000
     atom:   17    charge:    3.9712    magn:    0.4036    constr:    0.0000
     atom:   18    charge:    3.9697    magn:    0.4009    constr:    0.0000
     atom:   19    charge:    3.9696    magn:    0.3341    constr:    0.0000
     atom:   20    charge:    3.9613    magn:    0.0287    constr:    0.0000
     atom:   21    charge:    3.9712    magn:    0.4031    constr:    0.0000
     atom:   22    charge:    3.9694    magn:    0.4011    constr:    0.0000
     atom:   23    charge:    3.9695    magn:    0.3341    constr:    0.0000
     atom:   24    charge:    3.9614    magn:    0.0287    constr:    0.0000
     atom:   25    charge:    3.9713    magn:    0.4040    constr:    0.0000
     atom:   26    charge:    3.9697    magn:    0.4010    constr:    0.0000
     atom:   27    charge:    3.9703    magn:    0.3337    constr:    0.0000
     atom:   28    charge:    3.9614    magn:    0.0287    constr:    0.0000
     atom:   29    charge:    3.9723    magn:    0.4025    constr:    0.0000
     atom:   30    charge:    3.9699    magn:    0.4007    constr:    0.0000
     atom:   31    charge:    3.9697    magn:    0.3341    constr:    0.0000
     atom:   32    charge:    3.9613    magn:    0.0287    constr:    0.0000
     atom:   33    charge:    3.9711    magn:    0.4035    constr:    0.0000
     atom:   34    charge:    3.9699    magn:    0.4008    constr:    0.0000
     atom:   35    charge:    3.9701    magn:    0.3337    constr:    0.0000
     atom:   36    charge:    3.9614    magn:    0.0287    constr:    0.0000
     atom:   37    charge:    0.5905    magn:    0.1183    constr:    0.0000
     atom:   38    charge:    0.5905    magn:    0.1182    constr:    0.0000
     atom:   39    charge:    0.5905    magn:    0.1183    constr:    0.0000
     atom:   40    charge:    0.5906    magn:    0.1183    constr:    0.0000
     atom:   41    charge:    0.5905    magn:    0.1183    constr:    0.0000
     atom:   42    charge:    0.5905    magn:    0.1183    constr:    0.0000
     atom:   43    charge:    0.5905    magn:    0.1183    constr:    0.0000
     atom:   44    charge:    0.5905    magn:    0.1183    constr:    0.0000
     atom:   45    charge:    0.5906    magn:    0.1183    constr:    0.0000

     total cpu time spent up to now is     1263.8 secs

     total energy              =   -3728.54148627 Ry
     Harris-Foulkes estimate   =   -3728.53713975 Ry
     estimated scf accuracy    <       0.09095115 Ry

     total magnetization       =    21.24 Bohr mag/cell
     absolute magnetization    =    24.64 Bohr mag/cell

     iteration # 15     ecut=    44.10 Ry     beta=0.10
     Davidson diagonalization with overlap
     ethr =  2.30E-05,  avg # of iterations =  1.0

     negative rho (up, down):  3.551E-04 3.162E-04
 
     Adding external electric field

     Computed dipole along edir(3) : 
        Dipole               -0.6466 Ry au,         -1.6435 Debye
        Dipole field         -0.0012 Ry au
 
        Potential amp.        0.0899 Ry
        Total length         38.9923 bohr
 
 
     Adding external electric field

     Computed dipole along edir(3) : 
        Dipole               -0.6466 Ry au,         -1.6435 Debye
        Dipole field         -0.0012 Ry au
 
        Potential amp.        0.0899 Ry
        Total length         38.9923 bohr
 
 
     Magnetic moment per site:
     atom:    1    charge:    3.9716    magn:    0.4002    constr:    0.0000
     atom:    2    charge:    3.9710    magn:    0.3964    constr:    0.0000
     atom:    3    charge:    3.9697    magn:    0.3308    constr:    0.0000
     atom:    4    charge:    3.9618    magn:    0.0224    constr:    0.0000
     atom:    5    charge:    3.9717    magn:    0.4006    constr:    0.0000
     atom:    6    charge:    3.9712    magn:    0.3964    constr:    0.0000
     atom:    7    charge:    3.9697    magn:    0.3310    constr:    0.0000
     atom:    8    charge:    3.9618    magn:    0.0225    constr:    0.0000
     atom:    9    charge:    3.9720    magn:    0.3997    constr:    0.0000
     atom:   10    charge:    3.9710    magn:    0.3965    constr:    0.0000
     atom:   11    charge:    3.9698    magn:    0.3308    constr:    0.0000
     atom:   12    charge:    3.9618    magn:    0.0224    constr:    0.0000
     atom:   13    charge:    3.9720    magn:    0.3995    constr:    0.0000
     atom:   14    charge:    3.9709    magn:    0.3965    constr:    0.0000
     atom:   15    charge:    3.9696    magn:    0.3312    constr:    0.0000
     atom:   16    charge:    3.9617    magn:    0.0225    constr:    0.0000
     atom:   17    charge:    3.9721    magn:    0.3998    constr:    0.0000
     atom:   18    charge:    3.9710    magn:    0.3965    constr:    0.0000
     atom:   19    charge:    3.9699    magn:    0.3308    constr:    0.0000
     atom:   20    charge:    3.9618    magn:    0.0224    constr:    0.0000
     atom:   21    charge:    3.9720    magn:    0.3992    constr:    0.0000
     atom:   22    charge:    3.9713    magn:    0.3963    constr:    0.0000
     atom:   23    charge:    3.9698    magn:    0.3309    constr:    0.0000
     atom:   24    charge:    3.9618    magn:    0.0224    constr:    0.0000
     atom:   25    charge:    3.9720    magn:    0.4004    constr:    0.0000
     atom:   26    charge:    3.9712    magn:    0.3965    constr:    0.0000
     atom:   27    charge:    3.9695    magn:    0.3310    constr:    0.0000
     atom:   28    charge:    3.9617    magn:    0.0224    constr:    0.0000
     atom:   29    charge:    3.9716    magn:    0.3997    constr:    0.0000
     atom:   30    charge:    3.9709    magn:    0.3965    constr:    0.0000
     atom:   31    charge:    3.9697    magn:    0.3310    constr:    0.0000
     atom:   32    charge:    3.9618    magn:    0.0224    constr:    0.0000
     atom:   33    charge:    3.9721    magn:    0.3996    constr:    0.0000
     atom:   34    charge:    3.9710    magn:    0.3965    constr:    0.0000
     atom:   35    charge:    3.9698    magn:    0.3308    constr:    0.0000
     atom:   36    charge:    3.9618    magn:    0.0224    constr:    0.0000
     atom:   37    charge:    0.5902    magn:    0.1170    constr:    0.0000
     atom:   38    charge:    0.5902    magn:    0.1170    constr:    0.0000
     atom:   39    charge:    0.5902    magn:    0.1171    constr:    0.0000
     atom:   40    charge:    0.5902    magn:    0.1171    constr:    0.0000
     atom:   41    charge:    0.5902    magn:    0.1171    constr:    0.0000
     atom:   42    charge:    0.5902    magn:    0.1171    constr:    0.0000
     atom:   43    charge:    0.5902    magn:    0.1171    constr:    0.0000
     atom:   44    charge:    0.5902    magn:    0.1171    constr:    0.0000
     atom:   45    charge:    0.5902    magn:    0.1171    constr:    0.0000

     total cpu time spent up to now is     1336.7 secs

     total energy              =   -3728.54025721 Ry
     Harris-Foulkes estimate   =   -3728.54347861 Ry
     estimated scf accuracy    <       0.07861383 Ry

     total magnetization       =    20.45 Bohr mag/cell
     absolute magnetization    =    23.86 Bohr mag/cell

     iteration # 16     ecut=    44.10 Ry     beta=0.10
     Davidson diagonalization with overlap
[...]
     0.6819   0.6819   0.7616   0.7616   0.9123   0.9135   0.9141   0.9147
     0.9157   0.9159   0.9618   1.0214   1.0219   1.0400   1.0401   1.0461
     1.0463   1.0867   1.0867   1.1200   1.1334   1.1350   1.1850   1.1850
     1.2502   1.2502   1.2703   1.2800   1.2845   1.2846   1.3012   1.3013
     1.3074   1.3075   1.4200   1.4231   1.4597   1.4598   1.4637   1.4638
     1.4704   1.4706   1.6198   1.6199   1.6257   1.6257   1.6278   1.6278
     1.9170   1.9170   1.9712   1.9712   2.0551   2.0552   2.0666   2.0669
     2.0704   2.0705   2.0714   2.0715   2.0850   2.0850   2.1141   2.1511
     2.1730   2.1735   2.1750   2.1756   2.1814   2.1829   2.3877   2.3878
     2.3970   2.4116   2.4206   2.4206   2.4215   2.4216   2.4244   2.4249
     2.4647   2.4650   2.4682   2.4683   2.4694   2.4696   2.4970   2.5278
     2.5281   2.5296   2.5297   2.5303   2.5303   2.6541   2.6541   2.6542
     2.6542   2.6546   2.6546   2.7025   2.7025   2.7678   2.7678   2.7895
     2.8011   2.8414   2.8414   2.8428   2.8429   2.8436   2.8436   3.0710
     3.0712   3.0722   3.0730   3.0740   3.0750   3.0885   3.3580   3.3583
     3.8307   3.8310   3.8320   3.8325   3.8356   3.8372   5.3438   5.3439
     5.5878   5.5880   5.5907   5.5909   5.5951   5.5953   6.7662   6.7671
     6.7680   6.7685   6.7703   6.7707   7.2880   7.5436   7.5436   7.8612
     7.8612   7.8900   7.8904   7.8992   7.8993   7.9219   7.9228   8.0553
     8.0585   8.3463   8.3463   8.4811   8.7244   8.7244   8.9804   9.4960
     9.4960   9.6371   9.6373  10.3827  10.3830  10.3844  10.3847  10.3872
    10.3877  10.4321  10.5398  10.5398  11.0310  11.3358  11.3371  11.3383
    11.3391  11.3420  11.3429  11.8748  11.8751  11.8752  11.8754  11.8756
    11.8760  11.9802  11.9802  12.0968  12.0976  12.1074  12.1079  12.1375
    12.1386  13.0381  13.0381  13.0728  13.0732  13.0815  13.0820  13.1015
    13.1024  13.2950

          k = 0.0000 0.0510 0.0000 ( 34862 PWs)   bands (ev):

   -10.7709  -9.9275  -9.1648  -9.1646  -7.9574  -7.9565  -7.6062  -7.2130
    -7.2119  -5.2024  -4.0856  -3.7798  -3.7402  -3.3013  -3.3004  -3.1996
    -3.1978  -3.1359  -3.1359  -2.9086  -2.7362  -2.5587  -2.5583  -2.2331
    -2.0500  -2.0498  -1.7031  -1.7026  -1.6939  -1.5284  -1.5248  -1.5236
    -1.4614  -1.3468  -1.3462  -1.2887  -1.1791  -1.1778  -1.1402  -1.0622
    -0.9577  -0.9539  -0.9513  -0.9280  -0.9254  -0.8718  -0.8708  -0.8172
    -0.8152  -0.7995  -0.7972  -0.7374  -0.6408  -0.6192  -0.6071  -0.6067
    -0.5133  -0.4802  -0.4778  -0.4539  -0.4426  -0.4386  -0.3930  -0.3905
    -0.3033  -0.2878  -0.2847  -0.1470  -0.1436  -0.1158  -0.0904  -0.0852
    -0.0842  -0.0820  -0.0818   0.0249   0.0262   0.2037   0.2039   0.3054
     0.3060   0.3172   0.3453   0.3463   0.3466   0.3486   0.3503   0.4862
     0.4875   0.5269   0.5324   0.5388   0.5491   0.5992   0.6015   0.6460
     0.7201   0.7255   0.7341   0.7342   0.7753   0.7846   0.8999   0.9035
     0.9214   0.9224   0.9663   0.9732   0.9755   1.0255   1.0552   1.0582
     1.0740   1.0746   1.1391   1.1411   1.1426   1.1748   1.1785   1.2620
     1.2719   1.2721   1.2776   1.2784   1.2984   1.3081   1.3123   1.3173
     1.3634   1.3814   1.3911   1.3937   1.4206   1.4207   1.4697   1.4707
     1.5556   1.5816   1.5861   1.5939   1.5965   1.6373   1.6390   1.7172
     1.7173   1.7220   1.7285   1.7450   1.7473   1.8979   1.9656   1.9661
     1.9690   1.9707   1.9833   2.0203   2.0215   2.0755   2.0821   2.0892
     2.1526   2.1621   2.1843   2.1845   2.2201   2.2205   2.2273   2.2278
     2.2617   2.2975   2.2994   2.4008   2.4021   2.4494   2.4497   2.4604
     2.4614   2.5277   2.5283   2.5745   2.5749   2.5998   2.5999   2.6122
     2.6747   2.6778   2.6801   2.6802   2.6878   2.6895   2.7524   2.7534
     2.7965   2.8097   2.8380   2.8415   2.8417   2.8965   2.8965   2.8972
     2.8985   2.9279   2.9402   3.0631   3.0876   3.2044   3.2141   3.2142
     3.2570   3.2589   3.5702   3.5726   3.6413   3.7067   3.7074   3.9240
     4.0964   4.1830   4.1841   4.2747   4.4122   4.4141   4.8411   4.8430
     5.3435   5.3458   5.4049   5.4071   5.4203   5.7775   5.7788   5.9450
     6.2403   6.3059   6.3115   6.3559   6.3848   6.3856   6.4487   6.4494
     7.3042   7.3069   7.3483   7.3659   7.6637   7.8246   7.8345   7.8519
     8.5296   8.7672   8.8626   8.9487   8.9698   9.0062   9.0214   9.2866
     9.4515   9.8412   9.8418   9.9903   9.9996  10.0033  10.0925  10.1013
    10.2149  10.5285  10.7279  11.0609  11.0619  11.1581  11.1711  11.2028
    11.2032  11.2218  11.2371  11.4007  11.6498  11.7150  11.7228  11.8533
    12.3190  12.3207  12.5037  12.5393  12.5410  12.5558  12.5655  13.0156
    13.0263  13.1458  13.1801  13.1982  13.3483  13.3543  13.4905  13.5587
    13.5596  13.6342

          k = 0.0442 0.0255 0.0000 ( 34862 PWs)   bands (ev):

   -10.7709  -9.9275  -9.1650  -9.1647  -7.9571  -7.9568  -7.6053  -7.2125
    -7.2122  -5.2025  -4.0863  -3.7802  -3.7420  -3.3013  -3.3008  -3.1995
    -3.1991  -3.1358  -3.1350  -2.9097  -2.7371  -2.5586  -2.5582  -2.2347
    -2.0499  -2.0487  -1.7024  -1.7013  -1.6948  -1.5280  -1.5224  -1.5220
    -1.4659  -1.3488  -1.3467  -1.2871  -1.1737  -1.1712  -1.1387  -1.0594
    -0.9683  -0.9544  -0.9508  -0.9280  -0.9278  -0.8680  -0.8642  -0.8149
    -0.8121  -0.8023  -0.7964  -0.7396  -0.6417  -0.6262  -0.6101  -0.6096
    -0.5189  -0.4714  -0.4695  -0.4679  -0.4443  -0.4374  -0.3960  -0.3896
    -0.3056  -0.2741  -0.2662  -0.1511  -0.1406  -0.1322  -0.0875  -0.0859
    -0.0826  -0.0746  -0.0739   0.0280   0.0304   0.1947   0.1962   0.3058
     0.3104   0.3312   0.3433   0.3460   0.3464   0.3523   0.3580   0.4838
     0.4933   0.5114   0.5270   0.5289   0.5543   0.6034   0.6098   0.6644
     0.7180   0.7310   0.7320   0.7330   0.7822   0.7988   0.8880   0.8963
     0.9092   0.9135   0.9696   0.9707   0.9747   1.0303   1.0337   1.0419
     1.0715   1.0814   1.1323   1.1407   1.1472   1.1563   1.1656   1.2563
     1.2680   1.2687   1.2760   1.2788   1.2979   1.3092   1.3135   1.3213
     1.3610   1.3785   1.3884   1.3965   1.4207   1.4211   1.4696   1.4739
     1.5468   1.5793   1.6015   1.6067   1.6101   1.6344   1.6383   1.7170
     1.7175   1.7176   1.7314   1.7389   1.7453   1.8998   1.9628   1.9644
     1.9692   1.9737   1.9834   2.0220   2.0257   2.0647   2.0759   2.1091
     2.1508   2.1724   2.1844   2.1845   2.2158   2.2166   2.2274   2.2280
     2.2596   2.2945   2.2988   2.3970   2.4055   2.4479   2.4491   2.4570
     2.4597   2.5295   2.5305   2.5739   2.5756   2.5986   2.5991   2.6011
     2.6740   2.6797   2.6801   2.6814   2.6862   2.6919   2.7435   2.7470
     2.8053   2.8152   2.8382   2.8417   2.8448   2.8987   2.9013   2.9021
     2.9088   2.9230   2.9264   3.0632   3.0802   3.2034   3.2199   3.2216
     3.2604   3.2606   3.5647   3.5709   3.6577   3.7081   3.7089   3.9200
     4.0882   4.1859   4.1868   4.3077   4.4055   4.4090   4.8418   4.8426
     5.3433   5.3472   5.4122   5.4148   5.4156   5.7804   5.7815   5.9809
     6.2267   6.2932   6.3085   6.3593   6.3837   6.3847   6.4379   6.4411
     7.3146   7.3222   7.3508   7.3637   7.6636   7.7882   7.8188   7.8543
     8.4242   8.7666   8.8625   8.9678   9.0169   9.0256   9.0568   9.2865
     9.4241   9.8421   9.8430   9.9899  10.0032  10.0117  10.1008  10.1227
    10.2144  10.4456  10.7280  11.0617  11.0628  11.1705  11.2031  11.2037
    11.2056  11.2369  11.2791  11.4007  11.6490  11.6959  11.7176  11.9285
    12.3106  12.3186  12.5030  12.5236  12.5411  12.5439  12.5590  12.9809
    13.0155  13.1193  13.1668  13.1726  13.3536  13.3702  13.4801  13.5599
    13.5629  13.6373

          k = 0.0442 0.0765 0.0000 ( 34881 PWs)   bands (ev):

   -10.2044 -10.1988 -10.1954  -8.1084  -8.1043  -8.1033  -7.3137  -7.3072
    -7.3049  -4.4399  -4.4396  -4.4391  -3.6842  -3.6815  -3.6786  -3.1423
    -3.1411  -3.1399  -2.8568  -2.8553  -2.8524  -2.3040  -2.3004  -2.2974
    -2.0217  -2.0214  -2.0207  -1.5830  -1.5815  -1.5800  -1.4288  -1.4285
    -1.4283  -1.2784  -1.2761  -1.2727  -1.1117  -1.1097  -1.1080  -1.0673
    -1.0658  -1.0630  -1.0256  -1.0201  -1.0184  -0.8237  -0.8229  -0.8202
    -0.7808  -0.7789  -0.7744  -0.7022  -0.6999  -0.6995  -0.6353  -0.6301
    -0.6267  -0.6155  -0.6109  -0.6063  -0.5417  -0.5409  -0.5393  -0.3819
    -0.3789  -0.3714  -0.1842  -0.1826  -0.1770  -0.0915  -0.0871  -0.0764
     0.0326   0.0343   0.0348   0.0859   0.0871   0.0925   0.3173   0.3180
     0.3191   0.4018   0.4020   0.4028   0.4152   0.4164   0.4180   0.4559
     0.4603   0.4698   0.5479   0.5488   0.5529   0.5718   0.5741   0.5796
     0.6811   0.6824   0.6845   0.7004   0.7012   0.7026   0.8731   0.8823
     0.8869   0.9258   0.9259   0.9263   1.0103   1.0137   1.0145   1.0370
     1.0371   1.0378   1.1253   1.1264   1.1282   1.1805   1.1829   1.1849
     1.2573   1.2691   1.2735   1.2921   1.2931   1.2955   1.3952   1.3976
     1.3982   1.4178   1.4248   1.4266   1.4929   1.4948   1.5011   1.5018
     1.5045   1.5123   1.5596   1.5756   1.5805   1.6046   1.6051   1.6077
     1.7185   1.7213   1.7306   1.8375   1.8433   1.8452   1.9219   1.9223
     1.9227   1.9795   1.9814   1.9887   2.0201   2.0262   2.0290   2.0556
     2.0575   2.0637   2.0909   2.0918   2.0933   2.1967   2.2065   2.2095
     2.2848   2.2852   2.2861   2.4302   2.4397   2.4430   2.4500   2.4522
     2.4587   2.5836   2.5840   2.5861   2.6180   2.6205   2.6212   2.6680
     2.6682   2.6687   2.7155   2.7175   2.7247   2.8025   2.8030   2.8031
     2.9001   2.9009   2.9026   2.9136   2.9152   2.9153   2.9155   2.9194
     2.9212   3.0674   3.0706   3.0762   3.3385   3.3399   3.3414   3.6734
     3.6744   3.6766   3.7735   3.7770   3.7783   3.7979   3.7995   3.8017
     4.6227   4.6248   4.6256   4.6393   4.6402   4.6436   5.0479   5.0487
     5.0495   5.2140   5.2202   5.2218   5.3436   5.3847   5.3973   5.6950
     5.6972   5.7006   5.9483   5.9835   5.9967   6.4223   6.4242   6.4273
     6.5504   6.5560   6.5584   7.3450   7.3471   7.3479   8.3315   8.3646
     8.4050   8.4055   8.4057   8.4512   8.9993   9.0126   9.0180   9.4375
     9.4474   9.4724   9.6185   9.6189   9.6190   9.9053   9.9066   9.9068
    10.4922  10.5113  10.5659  11.3460  11.3466  11.3469  11.3878  11.3891
    11.3903  12.1393  12.1395  12.1398  12.2776  12.2828  12.2887  12.2915
    12.3751  12.4027  12.5229  12.5237  12.5255  12.7349  12.7401  12.7711
    12.9543  12.9582  12.9606  13.1090  13.1246  13.1296  13.8436  13.8444
    13.8507  14.1289

          k = 0.0442-0.0255 0.0000 ( 34862 PWs)   bands (ev):

   -10.7709  -9.9276  -9.1648  -9.1644  -7.9573  -7.9565  -7.6063  -7.2130
    -7.2119  -5.2025  -4.0862  -3.7801  -3.7410  -3.3011  -3.2998  -3.1996
    -3.1976  -3.1357  -3.1349  -2.9094  -2.7368  -2.5586  -2.5585  -2.2345
    -2.0498  -2.0489  -1.7032  -1.7016  -1.6947  -1.5289  -1.5239  -1.5227
    -1.4648  -1.3494  -1.3468  -1.2872  -1.1765  -1.1727  -1.1398  -1.0600
    -0.9654  -0.9557  -0.9494  -0.9279  -0.9251  -0.8706  -0.8658  -0.8173
    -0.8124  -0.8028  -0.7946  -0.7379  -0.6416  -0.6213  -0.6098  -0.6088
    -0.5152  -0.4772  -0.4713  -0.4650  -0.4465  -0.4357  -0.3971  -0.3882
    -0.3052  -0.2800  -0.2689  -0.1526  -0.1388  -0.1275  -0.0883  -0.0865
    -0.0821  -0.0766  -0.0757   0.0265   0.0302   0.1974   0.1990   0.3050
     0.3102   0.3275   0.3430   0.3449   0.3471   0.3529   0.3543   0.4861
     0.4909   0.5127   0.5274   0.5364   0.5520   0.6009   0.6097   0.6594
     0.7152   0.7330   0.7338   0.7341   0.7807   0.7938   0.8882   0.9002
     0.9114   0.9167   0.9693   0.9694   0.9767   1.0290   1.0372   1.0483
     1.0718   1.0788   1.1320   1.1439   1.1458   1.1580   1.1711   1.2567
     1.2688   1.2697   1.2755   1.2790   1.2989   1.3065   1.3151   1.3229
     1.3609   1.3788   1.3898   1.3963   1.4206   1.4211   1.4687   1.4741
     1.5501   1.5798   1.5979   1.6042   1.6058   1.6340   1.6396   1.7168
     1.7176   1.7183   1.7313   1.7386   1.7473   1.8993   1.9629   1.9649
     1.9677   1.9740   1.9832   2.0206   2.0255   2.0664   2.0757   2.1071
     2.1508   2.1705   2.1848   2.1848   2.2165   2.2178   2.2272   2.2283
     2.2597   2.2941   2.3004   2.3977   2.4044   2.4480   2.4495   2.4573
     2.4608   2.5289   2.5306   2.5736   2.5757   2.5990   2.6012   2.6020
     2.6728   2.6797   2.6802   2.6817   2.6851   2.6925   2.7448   2.7494
     2.8032   2.8134   2.8387   2.8422   2.8432   2.8976   2.8993   2.9009
     2.9080   2.9242   2.9298   3.0632   3.0799   3.2035   3.2191   3.2207
     3.2593   3.2610   3.5644   3.5730   3.6523   3.7071   3.7085   3.9203
     4.0901   4.1854   4.1873   4.2987   4.4060   4.4114   4.8420   4.8431
     5.3422   5.3484   5.4084   5.4132   5.4165   5.7807   5.7809   5.9718
     6.2320   6.2927   6.3137   6.3563   6.3855   6.3857   6.4400   6.4439
     7.3095   7.3200   7.3486   7.3657   7.6637   7.7899   7.8305   7.8522
     8.4533   8.7668   8.8625   8.9473   9.0030   9.0263   9.0581   9.2865
     9.4320   9.8415   9.8428   9.9901   9.9996  10.0118  10.0921  10.1228
    10.2146  10.4670  10.7281  11.0611  11.0626  11.1577  11.2029  11.2037
    11.2058  11.2217  11.2792  11.4007  11.6496  11.6958  11.7253  11.9117
    12.3108  12.3204  12.5032  12.5225  12.5392  12.5435  12.5678  12.9810
    13.0262  13.1232  13.1635  13.1888  13.3480  13.3704  13.4831  13.5590
    13.5627  13.6374

     the Fermi energy is     2.7066 ev

!    total energy              =   -3728.66153760 Ry
     Harris-Foulkes estimate   =   -3728.66154564 Ry
     estimated scf accuracy    <       0.00000050 Ry

     The total energy is the sum of the following terms:

     one-electron contribution =  -25333.55519350 Ry
     hartree contribution      =   13083.46395068 Ry
     xc contribution           =   -1541.64870499 Ry
     ewald contribution        =   10063.22357788 Ry
     electric field correction =       0.00065923 Ry
     smearing contrib. (-TS)   =      -0.14582690 Ry

     total magnetization       =    19.29 Bohr mag/cell
     absolute magnetization    =    21.84 Bohr mag/cell

     convergence has been achieved in  19 iterations

     Forces acting on atoms (Ry/au):


     negative rho (up, down):  2.162E-04 2.048E-04
     atom    1 type  1   force =     0.00005348    0.00008868    0.00426202
     atom    2 type  1   force =     0.00029396    0.00146465   -0.00454154
     atom    3 type  1   force =    -0.00008968   -0.00092517    0.00054159
     atom    4 type  1   force =     0.00047288    0.00103149   -0.00017519
     atom    5 type  1   force =     0.00004364    0.00001157    0.00423805
     atom    6 type  1   force =     0.00035109    0.00139415   -0.00454709
     atom    7 type  1   force =    -0.00013295   -0.00075812    0.00065120
     atom    8 type  1   force =    -0.00015523   -0.00058855    0.00033392
     atom    9 type  1   force =     0.00000989    0.00005401    0.00422762
     atom   10 type  1   force =     0.00029270    0.00147871   -0.00448948
     atom   11 type  1   force =    -0.00012619   -0.00091392    0.00053242
     atom   12 type  1   force =     0.00069714   -0.00036157   -0.00027025
     atom   13 type  1   force =    -0.00002196    0.00009590    0.00425522
     atom   14 type  1   force =     0.00025880    0.00146968   -0.00452635
     atom   15 type  1   force =    -0.00013563   -0.00090097    0.00051702
     atom   16 type  1   force =     0.00006247    0.00052811   -0.00050086
     atom   17 type  1   force =     0.00002513   -0.00001002    0.00426354
     atom   18 type  1   force =     0.00027974    0.00139057   -0.00453188
     atom   19 type  1   force =    -0.00009372   -0.00077873    0.00053309
     atom   20 type  1   force =    -0.00014866   -0.00119533   -0.00029881
     atom   21 type  1   force =     0.00001626    0.00001953    0.00422834
     atom   22 type  1   force =     0.00030735    0.00141943   -0.00447456
     atom   23 type  1   force =    -0.00013271   -0.00091882    0.00052930
     atom   24 type  1   force =    -0.00076913   -0.00032948   -0.00074811
     atom   25 type  1   force =     0.00002623    0.00007888    0.00424110
     atom   26 type  1   force =     0.00035615    0.00144271   -0.00454303
     atom   27 type  1   force =    -0.00013431   -0.00090369    0.00058634
     atom   28 type  1   force =     0.00029778    0.00170042   -0.00066873
     atom   29 type  1   force =    -0.00001022    0.00002337    0.00424324
     atom   30 type  1   force =     0.00027799    0.00141615   -0.00454670
     atom   31 type  1   force =    -0.00013557   -0.00076160    0.00058533
     atom   32 type  1   force =     0.00109742   -0.00079137   -0.00032354
     atom   33 type  1   force =     0.00003073    0.00001692    0.00423956
     atom   34 type  1   force =     0.00030831    0.00147858   -0.00449010
     atom   35 type  1   force =    -0.00009745   -0.00093841    0.00051213
     atom   36 type  1   force =     0.00086298   -0.00008674   -0.00107375
     atom   37 type  2   force =    -0.00062688   -0.00099326    0.00014768
     atom   38 type  2   force =    -0.00047974   -0.00073957    0.00122324
     atom   39 type  2   force =    -0.00029456   -0.00066271    0.00047987
     atom   40 type  2   force =    -0.00045927   -0.00076756    0.00066236
     atom   41 type  2   force =    -0.00016619   -0.00080598   -0.00033523
     atom   42 type  2   force =    -0.00028773   -0.00021093   -0.00015756
     atom   43 type  2   force =    -0.00038805   -0.00001756   -0.00045457
     atom   44 type  2   force =    -0.00077960   -0.00091478    0.00008652
     atom   45 type  2   force =    -0.00075667   -0.00032869   -0.00042339

     Total force =     0.019943     Total SCF correction =     0.002617
     SCF correction compared to forces is large: reduce conv_thr to get better values
 !ASE

     Writing output data file calc.save
 
     init_run     :     29.58s CPU     34.10s WALL (       1 calls)
     electrons    :  24765.16s CPU  28366.97s WALL (      11 calls)
     update_pot   :     23.01s CPU     24.26s WALL (      10 calls)
     forces       :    531.19s CPU    547.60s WALL (      11 calls)

     Called by init_run:
     wfcinit      :     20.09s CPU     24.10s WALL (       1 calls)
     potinit      :      0.96s CPU      1.03s WALL (       1 calls)

     Called by electrons:
     c_bands      :  16841.87s CPU  19613.24s WALL (     340 calls)
     sum_band     :   5750.36s CPU   6442.35s WALL (     340 calls)
     v_of_rho     :    117.04s CPU    134.58s WALL (     351 calls)
     newd         :   2089.28s CPU   2205.66s WALL (     351 calls)
     mix_rho      :     22.90s CPU     27.88s WALL (     340 calls)

     Called by c_bands:
     init_us_2    :     85.61s CPU     90.17s WALL (    6920 calls)
     cegterg      :  16367.53s CPU  19120.29s WALL (    3400 calls)

     Called by *egterg:
     h_psi        :   7979.11s CPU  10152.05s WALL (   10586 calls)
     s_psi        :   1369.29s CPU   1419.93s WALL (   10586 calls)
     g_psi        :     31.69s CPU     32.59s WALL (    7176 calls)
     cdiaghg      :   3294.26s CPU   3359.16s WALL (   10476 calls)

     Called by h_psi:
     add_vuspsi   :   1383.21s CPU   1428.57s WALL (   10586 calls)

     General routines
     calbec       :   2134.54s CPU   2179.42s WALL (   14096 calls)
     fft          :    115.79s CPU    134.47s WALL (   10980 calls)
     ffts         :      1.74s CPU      2.41s WALL (    1382 calls)
     fftw         :   4178.95s CPU   6758.74s WALL ( 5434572 calls)
     interpolate  :     13.19s CPU     18.99s WALL (    1382 calls)
     davcio       :      0.02s CPU      0.60s WALL (      10 calls)
 
     Parallel routines
     fft_scatter  :   2417.95s CPU   3869.92s WALL ( 5446934 calls)
 
     PWSCF        :     7h 3m CPU        8h 4m WALL

 
   This run was terminated on:  23:54:47  18Mar2017            

=------------------------------------------------------------------------------=
   JOB DONE.
=------------------------------------------------------------------------------=
