  python dir          : /home/vossj/suncat/lib/python2.7/site-packages/espresso
  espresso dir        : /home/vossj/suncat/esdld/espresso-dynpy-beef/bin
  pseudo dir          : /home/alatimer/bin/psp/esp_psp_w_gbrvRu/
  ase-espresso py git : ffa2778-git



     Program PWSCF v.5.1rc2 (svn rev. ) starts on 20Apr2018 at 13:26: 2 

     This program is part of the open-source Quantum ESPRESSO suite
     for quantum simulation of materials; please cite
         "P. Giannozzi et al., J. Phys.:Condens. Matter 21 395502 (2009);
          URL http://www.quantum-espresso.org", 
     in publications or presentations arising from this work. More details at
     http://www.quantum-espresso.org/quote

     Parallel version (MPI), running on    16 processors
     R & G space division:  proc/nbgrp/npool/nimage =      16
     Reading input from pw.inp
     Message from routine read_cards :
     DEPRECATED: no units specified in CELL_PARAMETERS card

     Current dimensions of program PWSCF are:
     Max number of different atomic species (ntypx) = 10
     Max number of k-points (npk) =  40000
     Max angular momentum in pseudopotentials (lmaxx) =  3
     Presently no symmetry can be used with electric field


     IMPORTANT: XC functional enforced from input :
     Exchange-correlation      = RPBE ( 1  4 28  4 0)
     Any further DFT definition will be discarded
     Please, verify this is what you really want


     Subspace diagonalization in iterative solution of the eigenvalue problem:
     a serial algorithm will be used

 
     Parallelization info
     --------------------
     sticks:   dense  smooth     PW     G-vecs:    dense   smooth      PW
     Min         367     147     39               123943    31337    4337
     Max         368     148     40               123966    31384    4354
     Sum        5877    2361    631              1983193   501747   69475
 
     Generating pointlists ...
     new r_m :   0.4125 (alat units)  0.7795 (a.u.) for type    1
     new r_m :   0.4125 (alat units)  0.7795 (a.u.) for type    2


     bravais-lattice index     =            0
     lattice parameter (alat)  =       1.8897  a.u.
     unit-cell volume          =   12682.1321 (a.u.)^3
     number of atoms/cell      =           37
     number of atomic types    =            2
     number of electrons       =       328.00
     number of Kohn-Sham states=          264
     kinetic-energy cutoff     =      44.0992  Ry
     charge density cutoff     =     440.9919  Ry
     convergence threshold     =      7.3E-07
     mixing beta               =       0.1000
     number of iterations used =           10  plain     mixing
     Exchange-correlation      = RPBE ( 1  4 28  4 0)
     nstep                     =           50


     celldm(1)=   1.889726  celldm(2)=   0.000000  celldm(3)=   0.000000
     celldm(4)=   0.000000  celldm(5)=   0.000000  celldm(6)=   0.000000

     crystal axes: (cart. coord. in units of alat)
               a(1) = (   6.191574   0.000000   0.000000 )  
               a(2) = (   0.000000   7.583099   0.000000 )  
               a(3) = (   0.000000   0.000000  40.026524 )  

     reciprocal axes: (cart. coord. in units 2 pi/alat)
               b(1) = (  0.161510  0.000000  0.000000 )  
               b(2) = (  0.000000  0.131872  0.000000 )  
               b(3) = (  0.000000  0.000000  0.024983 )  


     PseudoPot. # 1 for Co read from file:
     /home/alatimer/bin/psp/esp_psp_w_gbrvRu/Co.UPF
     MD5 check sum: f36dda9fe147c5f42efc2a4f7ec0da3d
     Pseudo is Ultrasoft + core correction, Zval =  9.0
     Generated by new atomic code, or converted to UPF format
     Using radial grid of  937 points,  3 beta functions with: 
                l(1) =   1
                l(2) =   2
                l(3) =   2
     Q(r) pseudized with  8 coefficients,  rinner =    1.000   1.000   1.000
                                                       1.000   1.000

     PseudoPot. # 2 for  C read from file:
     /home/alatimer/bin/psp/esp_psp_w_gbrvRu/C.UPF
     MD5 check sum: ab446d787031eba755f1d5ee46644bb0
     Pseudo is Ultrasoft + core correction, Zval =  4.0
     Generated using "atomic" code by A. Dal Corso  v.5.0.2 svn rev. 9415
     Using radial grid of 1073 points,  4 beta functions with: 
                l(1) =   0
                l(2) =   0
                l(3) =   1
                l(4) =   1
     Q(r) pseudized with 0 coefficients 


     atomic species   valence    mass     pseudopotential
        Co1            9.00    58.93320     Co( 1.00)
        C1             4.00    12.01100      C( 1.00)

     Starting magnetic structure 
     atomic species   magnetization
        Co1          0.444
        C1           1.000

     No symmetry found



   Cartesian axes

     site n.     atom                  positions (alat units)
         1           Co1 tau(   1) = (   4.1277161   1.2638498  24.0265242  )
         2           Co1 tau(   2) = (   4.1277161   3.7915494  24.0265242  )
         3           Co1 tau(   3) = (   4.1277161   6.3192490  24.0265242  )
         4           Co1 tau(   4) = (   2.0638581   0.0000000  23.2968402  )
         5           Co1 tau(   5) = (   2.0638581   2.5276996  23.2968402  )
         6           Co1 tau(   6) = (   2.0638581   5.0553992  23.2968402  )
         7           Co1 tau(   7) = (   0.0000000   1.2638498  22.5671562  )
         8           Co1 tau(   8) = (   0.0000000   3.7915494  22.5671562  )
         9           Co1 tau(   9) = (   0.0000000   6.3192490  22.5671562  )
        10           Co1 tau(  10) = (   4.1277161   0.0000000  21.8374721  )
        11           Co1 tau(  11) = (   4.1277161   2.5276996  21.8374721  )
        12           Co1 tau(  12) = (   4.1277161   5.0553992  21.8374721  )
        13           Co1 tau(  13) = (   2.0638581   1.2638498  21.1077881  )
        14           Co1 tau(  14) = (   2.0638581   3.7915494  21.1077881  )
        15           Co1 tau(  15) = (   2.0638581   6.3192490  21.1077881  )
        16           Co1 tau(  16) = (   0.0000000   0.0000000  20.3781041  )
        17           Co1 tau(  17) = (   0.0000000   2.5276996  20.3781041  )
        18           Co1 tau(  18) = (   0.0000000   5.0553992  20.3781041  )
        19           Co1 tau(  19) = (   4.1277161   1.2638498  19.6484201  )
        20           Co1 tau(  20) = (   4.1277161   3.7915494  19.6484201  )
        21           Co1 tau(  21) = (   4.1277161   6.3192490  19.6484201  )
        22           Co1 tau(  22) = (   2.0638581   0.0000000  18.9187361  )
        23           Co1 tau(  23) = (   2.0638581   2.5276996  18.9187361  )
        24           Co1 tau(  24) = (   2.0638581   5.0553992  18.9187361  )
        25           Co1 tau(  25) = (   0.0000000   1.2638498  18.1890521  )
        26           Co1 tau(  26) = (   0.0000000   3.7915494  18.1890521  )
        27           Co1 tau(  27) = (   0.0000000   6.3192490  18.1890521  )
        28           Co1 tau(  28) = (   4.1277161   0.0000000  17.4593680  )
        29           Co1 tau(  29) = (   4.1277161   2.5276996  17.4593680  )
        30           Co1 tau(  30) = (   4.1277161   5.0553992  17.4593680  )
        31           Co1 tau(  31) = (   2.0638581   1.2638498  16.7296840  )
        32           Co1 tau(  32) = (   2.0638581   3.7915494  16.7296840  )
        33           Co1 tau(  33) = (   2.0638581   6.3192490  16.7296840  )
        34           Co1 tau(  34) = (   0.0000000   0.0000000  16.0000000  )
        35           Co1 tau(  35) = (   0.0000000   2.5276996  16.0000000  )
        36           Co1 tau(  36) = (   0.0000000   5.0553992  16.0000000  )
        37           C1  tau(  37) = (   2.0638581   1.2638498  24.8968402  )

     number of k points=    10  Fermi-Dirac smearing, width (Ry)=  0.0073
                       cart. coord. in units 2pi/alat
        k(    1) = (   0.0000000   0.0000000   0.0000000), wk =   0.1111111
        k(    2) = (   0.0000000   0.0439574   0.0000000), wk =   0.2222222
        k(    3) = (   0.0538366   0.0000000   0.0000000), wk =   0.2222222
        k(    4) = (   0.0538366   0.0439574   0.0000000), wk =   0.2222222
        k(    5) = (   0.0538366  -0.0439574   0.0000000), wk =   0.2222222
        k(    6) = (   0.0000000   0.0000000   0.0000000), wk =   0.1111111
        k(    7) = (   0.0000000   0.0439574   0.0000000), wk =   0.2222222
        k(    8) = (   0.0538366   0.0000000   0.0000000), wk =   0.2222222
        k(    9) = (   0.0538366   0.0439574   0.0000000), wk =   0.2222222
        k(   10) = (   0.0538366  -0.0439574   0.0000000), wk =   0.2222222

     Dense  grid:  1983193 G-vectors     FFT dimensions: (  80,  96, 512)

     Smooth grid:   501747 G-vectors     FFT dimensions: (  50,  64, 320)

     Largest allocated arrays     est. size (Mb)     dimensions
        Kohn-Sham Wavefunctions        15.94 Mb     (    3956,  264)
        NL pseudopotentials            28.73 Mb     (    3956,  476)
        Each V/rho on FFT grid          7.50 Mb     (  245760,   2)
        Each G-vector array             0.95 Mb     (  123962)
        G-vector shells                 0.41 Mb     (   54356)
     Largest temporary arrays     est. size (Mb)     dimensions
        Auxiliary wavefunctions        63.74 Mb     (    3956, 1056)
        Each subspace H/S matrix       17.02 Mb     (    1056, 1056)
        Each <psi_i|beta_j> matrix      1.92 Mb     (     476,  264)
        Arrays for rho mixing          37.50 Mb     (  245760,   10)

     Initial potential from superposition of free atoms
     Check: negative starting charge=(component1):   -0.004264
     Check: negative starting charge=(component2):   -0.001664

     starting charge  327.99028, renormalised to  328.00000

     negative rho (up, down):  4.265E-03 1.664E-03
 
     Adding external electric field

     Computed dipole along edir(3) : 
        Dipole               -0.0007 Ry au,         -0.0018 Debye
        Dipole field         -0.0000 Ry au
 
        Potential amp.        0.0001 Ry
        Total length         73.7482 bohr
 
 
     Adding external electric field

     Computed dipole along edir(3) : 
        Dipole               -0.0007 Ry au,         -0.0018 Debye
        Dipole field         -0.0000 Ry au
 
        Potential amp.        0.0001 Ry
        Total length         73.7482 bohr
 
     Starting wfc are  328 randomized atomic wfcs

     total cpu time spent up to now is       48.8 secs

     Self-consistent Calculation

     iteration #  1     ecut=    44.10 Ry     beta=0.10
     Davidson diagonalization with overlap
     ethr =  1.00E-02,  avg # of iterations =  7.5

     negative rho (up, down):  4.153E-03 1.895E-03
 
     Adding external electric field

     Computed dipole along edir(3) : 
        Dipole               -0.5777 Ry au,         -1.4683 Debye
        Dipole field         -0.0006 Ry au
 
        Potential amp.        0.0844 Ry
        Total length         73.7482 bohr
 
 
     Adding external electric field

     Computed dipole along edir(3) : 
        Dipole               -0.5777 Ry au,         -1.4683 Debye
        Dipole field         -0.0006 Ry au
 
        Potential amp.        0.0844 Ry
        Total length         73.7482 bohr
 
 
     Magnetic moment per site:
     atom:    1    charge:    3.1792    magn:    1.4191    constr:    0.0000
     atom:    2    charge:    3.1730    magn:    1.4256    constr:    0.0000
     atom:    3    charge:    3.1730    magn:    1.4256    constr:    0.0000
     atom:    4    charge:    3.2146    magn:    1.3825    constr:    0.0000
     atom:    5    charge:    3.2146    magn:    1.3825    constr:    0.0000
     atom:    6    charge:    3.2021    magn:    1.3977    constr:    0.0000
     atom:    7    charge:    3.2138    magn:    1.3846    constr:    0.0000
     atom:    8    charge:    3.2157    magn:    1.3830    constr:    0.0000
     atom:    9    charge:    3.2157    magn:    1.3830    constr:    0.0000
     atom:   10    charge:    3.2295    magn:    1.3695    constr:    0.0000
     atom:   11    charge:    3.2296    magn:    1.3695    constr:    0.0000
     atom:   12    charge:    3.2293    magn:    1.3692    constr:    0.0000
     atom:   13    charge:    3.2295    magn:    1.3705    constr:    0.0000
     atom:   14    charge:    3.2291    magn:    1.3700    constr:    0.0000
     atom:   15    charge:    3.2291    magn:    1.3700    constr:    0.0000
     atom:   16    charge:    3.2294    magn:    1.3699    constr:    0.0000
     atom:   17    charge:    3.2294    magn:    1.3699    constr:    0.0000
     atom:   18    charge:    3.2300    magn:    1.3697    constr:    0.0000
     atom:   19    charge:    3.2292    magn:    1.3695    constr:    0.0000
     atom:   20    charge:    3.2292    magn:    1.3696    constr:    0.0000
     atom:   21    charge:    3.2292    magn:    1.3696    constr:    0.0000
     atom:   22    charge:    3.2299    magn:    1.3702    constr:    0.0000
     atom:   23    charge:    3.2299    magn:    1.3702    constr:    0.0000
     atom:   24    charge:    3.2295    magn:    1.3696    constr:    0.0000
     atom:   25    charge:    3.2296    magn:    1.3693    constr:    0.0000
     atom:   26    charge:    3.2295    magn:    1.3692    constr:    0.0000
     atom:   27    charge:    3.2295    magn:    1.3692    constr:    0.0000
     atom:   28    charge:    3.2151    magn:    1.3826    constr:    0.0000
     atom:   29    charge:    3.2151    magn:    1.3826    constr:    0.0000
     atom:   30    charge:    3.2148    magn:    1.3827    constr:    0.0000
     atom:   31    charge:    3.2021    magn:    1.3965    constr:    0.0000
     atom:   32    charge:    3.2019    magn:    1.3966    constr:    0.0000
     atom:   33    charge:    3.2019    magn:    1.3966    constr:    0.0000
     atom:   34    charge:    3.1737    magn:    1.4243    constr:    0.0000
     atom:   35    charge:    3.1737    magn:    1.4243    constr:    0.0000
     atom:   36    charge:    3.1736    magn:    1.4244    constr:    0.0000
     atom:   37    charge:    0.5649    magn:    0.5348    constr:    0.0000

     total cpu time spent up to now is      200.1 secs

     total energy              =   -2891.58848949 Ry
     Harris-Foulkes estimate   =   -2895.02985978 Ry
     estimated scf accuracy    <      22.80241485 Ry

     total magnetization       =    76.92 Bohr mag/cell
     absolute magnetization    =    76.95 Bohr mag/cell

     iteration #  2     ecut=    44.10 Ry     beta=0.10
     Davidson diagonalization with overlap
     ethr =  6.95E-03,  avg # of iterations =  3.3

     negative rho (up, down):  5.239E-03 3.119E-03
 
     Adding external electric field

     Computed dipole along edir(3) : 
        Dipole                0.5931 Ry au,          1.5074 Debye
        Dipole field          0.0006 Ry au
 
        Potential amp.       -0.0867 Ry
        Total length         73.7482 bohr
 
 
     Adding external electric field

     Computed dipole along edir(3) : 
        Dipole                0.5931 Ry au,          1.5074 Debye
        Dipole field          0.0006 Ry au
 
        Potential amp.       -0.0867 Ry
        Total length         73.7482 bohr
 
 
     Magnetic moment per site:
     atom:    1    charge:    3.2050    magn:    1.3919    constr:    0.0000
     atom:    2    charge:    3.2002    magn:    1.3975    constr:    0.0000
     atom:    3    charge:    3.2002    magn:    1.3975    constr:    0.0000
     atom:    4    charge:    3.2267    magn:    1.3638    constr:    0.0000
     atom:    5    charge:    3.2266    magn:    1.3638    constr:    0.0000
     atom:    6    charge:    3.2196    magn:    1.3753    constr:    0.0000
     atom:    7    charge:    3.2153    magn:    1.3752    constr:    0.0000
     atom:    8    charge:    3.2177    magn:    1.3725    constr:    0.0000
     atom:    9    charge:    3.2177    magn:    1.3725    constr:    0.0000
     atom:   10    charge:    3.2142    magn:    1.3704    constr:    0.0000
     atom:   11    charge:    3.2142    magn:    1.3704    constr:    0.0000
     atom:   12    charge:    3.2146    magn:    1.3700    constr:    0.0000
     atom:   13    charge:    3.2073    magn:    1.3738    constr:    0.0000
     atom:   14    charge:    3.2069    magn:    1.3730    constr:    0.0000
     atom:   15    charge:    3.2069    magn:    1.3730    constr:    0.0000
     atom:   16    charge:    3.2043    magn:    1.3725    constr:    0.0000
     atom:   17    charge:    3.2043    magn:    1.3726    constr:    0.0000
     atom:   18    charge:    3.2047    magn:    1.3724    constr:    0.0000
     atom:   19    charge:    3.2053    magn:    1.3726    constr:    0.0000
     atom:   20    charge:    3.2055    magn:    1.3728    constr:    0.0000
     atom:   21    charge:    3.2055    magn:    1.3728    constr:    0.0000
     atom:   22    charge:    3.2118    magn:    1.3723    constr:    0.0000
     atom:   23    charge:    3.2118    magn:    1.3724    constr:    0.0000
     atom:   24    charge:    3.2114    magn:    1.3715    constr:    0.0000
     atom:   25    charge:    3.2224    magn:    1.3644    constr:    0.0000
     atom:   26    charge:    3.2224    magn:    1.3642    constr:    0.0000
     atom:   27    charge:    3.2224    magn:    1.3642    constr:    0.0000
     atom:   28    charge:    3.2272    magn:    1.3632    constr:    0.0000
     atom:   29    charge:    3.2272    magn:    1.3632    constr:    0.0000
     atom:   30    charge:    3.2270    magn:    1.3632    constr:    0.0000
     atom:   31    charge:    3.2238    magn:    1.3707    constr:    0.0000
     atom:   32    charge:    3.2237    magn:    1.3708    constr:    0.0000
     atom:   33    charge:    3.2237    magn:    1.3708    constr:    0.0000
     atom:   34    charge:    3.2017    magn:    1.3958    constr:    0.0000
     atom:   35    charge:    3.2017    magn:    1.3958    constr:    0.0000
     atom:   36    charge:    3.2017    magn:    1.3959    constr:    0.0000
     atom:   37    charge:    0.5691    magn:    0.5308    constr:    0.0000

     total cpu time spent up to now is      305.1 secs

     total energy              =   -2891.02339149 Ry
     Harris-Foulkes estimate   =   -2901.06280295 Ry
     estimated scf accuracy    <     245.07930170 Ry

     total magnetization       =    74.52 Bohr mag/cell
     absolute magnetization    =    74.57 Bohr mag/cell

     iteration #  3     ecut=    44.10 Ry     beta=0.10
     Davidson diagonalization with overlap
     ethr =  6.95E-03,  avg # of iterations =  1.4

     negative rho (up, down):  7.794E-03 4.971E-03
 
     Adding external electric field

     Computed dipole along edir(3) : 
        Dipole               -0.5071 Ry au,         -1.2889 Debye
        Dipole field         -0.0005 Ry au
 
        Potential amp.        0.0741 Ry
        Total length         73.7482 bohr
 
 
     Adding external electric field

     Computed dipole along edir(3) : 
        Dipole               -0.5071 Ry au,         -1.2889 Debye
        Dipole field         -0.0005 Ry au
 
        Potential amp.        0.0741 Ry
        Total length         73.7482 bohr
 
 
     Magnetic moment per site:
     atom:    1    charge:    3.2130    magn:    1.3823    constr:    0.0000
     atom:    2    charge:    3.2091    magn:    1.3874    constr:    0.0000
     atom:    3    charge:    3.2090    magn:    1.3874    constr:    0.0000
     atom:    4    charge:    3.2280    magn:    1.3590    constr:    0.0000
     atom:    5    charge:    3.2280    magn:    1.3590    constr:    0.0000
     atom:    6    charge:    3.2229    magn:    1.3693    constr:    0.0000
     atom:    7    charge:    3.2170    magn:    1.3705    constr:    0.0000
     atom:    8    charge:    3.2193    magn:    1.3678    constr:    0.0000
     atom:    9    charge:    3.2193    magn:    1.3678    constr:    0.0000
     atom:   10    charge:    3.2149    magn:    1.3661    constr:    0.0000
     atom:   11    charge:    3.2149    magn:    1.3661    constr:    0.0000
     atom:   12    charge:    3.2155    magn:    1.3657    constr:    0.0000
     atom:   13    charge:    3.2080    magn:    1.3697    constr:    0.0000
     atom:   14    charge:    3.2078    magn:    1.3687    constr:    0.0000
     atom:   15    charge:    3.2078    magn:    1.3687    constr:    0.0000
     atom:   16    charge:    3.2047    magn:    1.3688    constr:    0.0000
     atom:   17    charge:    3.2047    magn:    1.3688    constr:    0.0000
     atom:   18    charge:    3.2051    magn:    1.3687    constr:    0.0000
     atom:   19    charge:    3.2047    magn:    1.3697    constr:    0.0000
     atom:   20    charge:    3.2048    magn:    1.3700    constr:    0.0000
     atom:   21    charge:    3.2048    magn:    1.3700    constr:    0.0000
     atom:   22    charge:    3.2094    magn:    1.3708    constr:    0.0000
     atom:   23    charge:    3.2094    magn:    1.3708    constr:    0.0000
     atom:   24    charge:    3.2091    magn:    1.3699    constr:    0.0000
     atom:   25    charge:    3.2179    magn:    1.3642    constr:    0.0000
     atom:   26    charge:    3.2179    magn:    1.3640    constr:    0.0000
     atom:   27    charge:    3.2179    magn:    1.3640    constr:    0.0000
     atom:   28    charge:    3.2217    magn:    1.3641    constr:    0.0000
     atom:   29    charge:    3.2217    magn:    1.3641    constr:    0.0000
     atom:   30    charge:    3.2215    magn:    1.3640    constr:    0.0000
     atom:   31    charge:    3.2196    magn:    1.3712    constr:    0.0000
     atom:   32    charge:    3.2195    magn:    1.3713    constr:    0.0000
     atom:   33    charge:    3.2195    magn:    1.3713    constr:    0.0000
     atom:   34    charge:    3.2052    magn:    1.3905    constr:    0.0000
     atom:   35    charge:    3.2052    magn:    1.3905    constr:    0.0000
     atom:   36    charge:    3.2052    magn:    1.3906    constr:    0.0000
     atom:   37    charge:    0.5702    magn:    0.5293    constr:    0.0000

     total cpu time spent up to now is      399.4 secs

     total energy              =   -2894.01139429 Ry
     Harris-Foulkes estimate   =   -2895.84798024 Ry
     estimated scf accuracy    <     115.76918109 Ry

     total magnetization       =    76.34 Bohr mag/cell
     absolute magnetization    =    76.39 Bohr mag/cell

     iteration #  4     ecut=    44.10 Ry     beta=0.10
     Davidson diagonalization with overlap
     ethr =  6.95E-03,  avg # of iterations =  1.0

     negative rho (up, down):  1.001E-02 6.572E-03
 
     Adding external electric field

     Computed dipole along edir(3) : 
        Dipole               -0.0580 Ry au,         -0.1474 Debye
        Dipole field         -0.0001 Ry au
 
        Potential amp.        0.0085 Ry
        Total length         73.7482 bohr
 
 
     Adding external electric field

     Computed dipole along edir(3) : 
        Dipole               -0.0580 Ry au,         -0.1474 Debye
        Dipole field         -0.0001 Ry au
 
        Potential amp.        0.0085 Ry
        Total length         73.7482 bohr
 
 
     Magnetic moment per site:
     atom:    1    charge:    3.2175    magn:    1.3711    constr:    0.0000
     atom:    2    charge:    3.2174    magn:    1.3736    constr:    0.0000
     atom:    3    charge:    3.2174    magn:    1.3735    constr:    0.0000
     atom:    4    charge:    3.2187    magn:    1.3555    constr:    0.0000
     atom:    5    charge:    3.2187    magn:    1.3556    constr:    0.0000
     atom:    6    charge:    3.2171    magn:    1.3658    constr:    0.0000
     atom:    7    charge:    3.2128    magn:    1.3651    constr:    0.0000
     atom:    8    charge:    3.2146    magn:    1.3629    constr:    0.0000
     atom:    9    charge:    3.2146    magn:    1.3629    constr:    0.0000
     atom:   10    charge:    3.2123    magn:    1.3586    constr:    0.0000
     atom:   11    charge:    3.2123    magn:    1.3586    constr:    0.0000
     atom:   12    charge:    3.2129    magn:    1.3581    constr:    0.0000
     atom:   13    charge:    3.2093    magn:    1.3598    constr:    0.0000
     atom:   14    charge:    3.2095    magn:    1.3583    constr:    0.0000
     atom:   15    charge:    3.2095    magn:    1.3583    constr:    0.0000
     atom:   16    charge:    3.2083    magn:    1.3574    constr:    0.0000
     atom:   17    charge:    3.2083    magn:    1.3574    constr:    0.0000
     atom:   18    charge:    3.2086    magn:    1.3575    constr:    0.0000
     atom:   19    charge:    3.2076    magn:    1.3588    constr:    0.0000
     atom:   20    charge:    3.2076    magn:    1.3592    constr:    0.0000
     atom:   21    charge:    3.2076    magn:    1.3592    constr:    0.0000
     atom:   22    charge:    3.2091    magn:    1.3621    constr:    0.0000
     atom:   23    charge:    3.2091    magn:    1.3621    constr:    0.0000
     atom:   24    charge:    3.2088    magn:    1.3609    constr:    0.0000
     atom:   25    charge:    3.2124    magn:    1.3587    constr:    0.0000
     atom:   26    charge:    3.2124    magn:    1.3585    constr:    0.0000
     atom:   27    charge:    3.2124    magn:    1.3585    constr:    0.0000
     atom:   28    charge:    3.2141    magn:    1.3609    constr:    0.0000
     atom:   29    charge:    3.2140    magn:    1.3609    constr:    0.0000
     atom:   30    charge:    3.2139    magn:    1.3608    constr:    0.0000
     atom:   31    charge:    3.2174    magn:    1.3644    constr:    0.0000
     atom:   32    charge:    3.2175    magn:    1.3644    constr:    0.0000
     atom:   33    charge:    3.2175    magn:    1.3644    constr:    0.0000
     atom:   34    charge:    3.2206    magn:    1.3702    constr:    0.0000
     atom:   35    charge:    3.2206    magn:    1.3702    constr:    0.0000
     atom:   36    charge:    3.2206    magn:    1.3703    constr:    0.0000
     atom:   37    charge:    0.5714    magn:    0.5247    constr:    0.0000

     total cpu time spent up to now is      492.3 secs

     total energy              =   -2894.78396894 Ry
     Harris-Foulkes estimate   =   -2895.36506000 Ry
     estimated scf accuracy    <      43.06824452 Ry

     total magnetization       =    76.39 Bohr mag/cell
     absolute magnetization    =    76.43 Bohr mag/cell

     iteration #  5     ecut=    44.10 Ry     beta=0.10
     Davidson diagonalization with overlap
     ethr =  6.95E-03,  avg # of iterations =  1.0

     negative rho (up, down):  7.677E-03 5.586E-03
 
     Adding external electric field

     Computed dipole along edir(3) : 
        Dipole               -0.2429 Ry au,         -0.6173 Debye
        Dipole field         -0.0002 Ry au
 
        Potential amp.        0.0355 Ry
        Total length         73.7482 bohr
 
 
     Adding external electric field

     Computed dipole along edir(3) : 
        Dipole               -0.2429 Ry au,         -0.6173 Debye
        Dipole field         -0.0002 Ry au
 
        Potential amp.        0.0355 Ry
        Total length         73.7482 bohr
 
 
     Magnetic moment per site:
     atom:    1    charge:    3.2351    magn:    1.3101    constr:    0.0000
     atom:    2    charge:    3.2411    magn:    1.3100    constr:    0.0000
     atom:    3    charge:    3.2411    magn:    1.3099    constr:    0.0000
     atom:    4    charge:    3.2107    magn:    1.3042    constr:    0.0000
     atom:    5    charge:    3.2107    magn:    1.3042    constr:    0.0000
     atom:    6    charge:    3.2161    magn:    1.3185    constr:    0.0000
     atom:    7    charge:    3.2073    magn:    1.3184    constr:    0.0000
     atom:    8    charge:    3.2072    magn:    1.3170    constr:    0.0000
     atom:    9    charge:    3.2072    magn:    1.3170    constr:    0.0000
     atom:   10    charge:    3.1966    magn:    1.3156    constr:    0.0000
     atom:   11    charge:    3.1966    magn:    1.3156    constr:    0.0000
     atom:   12    charge:    3.1953    magn:    1.3158    constr:    0.0000
     atom:   13    charge:    3.2027    magn:    1.3113    constr:    0.0000
     atom:   14    charge:    3.2009    magn:    1.3106    constr:    0.0000
     atom:   15    charge:    3.2009    magn:    1.3106    constr:    0.0000
     atom:   16    charge:    3.2034    magn:    1.3090    constr:    0.0000
     atom:   17    charge:    3.2034    magn:    1.3090    constr:    0.0000
     atom:   18    charge:    3.2032    magn:    1.3097    constr:    0.0000
     atom:   19    charge:    3.2057    magn:    1.3073    constr:    0.0000
     atom:   20    charge:    3.2052    magn:    1.3080    constr:    0.0000
     atom:   21    charge:    3.2052    magn:    1.3080    constr:    0.0000
     atom:   22    charge:    3.2056    magn:    1.3109    constr:    0.0000
     atom:   23    charge:    3.2056    magn:    1.3109    constr:    0.0000
     atom:   24    charge:    3.2052    magn:    1.3083    constr:    0.0000
     atom:   25    charge:    3.1988    magn:    1.3135    constr:    0.0000
     atom:   26    charge:    3.1987    magn:    1.3133    constr:    0.0000
     atom:   27    charge:    3.1987    magn:    1.3133    constr:    0.0000
     atom:   28    charge:    3.2123    magn:    1.3100    constr:    0.0000
     atom:   29    charge:    3.2123    magn:    1.3100    constr:    0.0000
     atom:   30    charge:    3.2123    magn:    1.3095    constr:    0.0000
     atom:   31    charge:    3.2211    magn:    1.3114    constr:    0.0000
     atom:   32    charge:    3.2211    magn:    1.3114    constr:    0.0000
     atom:   33    charge:    3.2211    magn:    1.3114    constr:    0.0000
     atom:   34    charge:    3.2331    magn:    1.3146    constr:    0.0000
     atom:   35    charge:    3.2331    magn:    1.3146    constr:    0.0000
     atom:   36    charge:    3.2330    magn:    1.3147    constr:    0.0000
     atom:   37    charge:    0.5818    magn:    0.4990    constr:    0.0000

     total cpu time spent up to now is      585.2 secs

     total energy              =   -2895.27960017 Ry
     Harris-Foulkes estimate   =   -2895.06381534 Ry
     estimated scf accuracy    <       2.31362164 Ry

     total magnetization       =    76.58 Bohr mag/cell
     absolute magnetization    =    76.63 Bohr mag/cell

     iteration #  6     ecut=    44.10 Ry     beta=0.10
     Davidson diagonalization with overlap
     ethr =  7.05E-04,  avg # of iterations =  8.1

     negative rho (up, down):  5.755E-03 5.145E-03
 
     Adding external electric field

     Computed dipole along edir(3) : 
        Dipole               -0.1422 Ry au,         -0.3613 Debye
        Dipole field         -0.0001 Ry au
 
        Potential amp.        0.0208 Ry
        Total length         73.7482 bohr
 
 
     Adding external electric field

     Computed dipole along edir(3) : 
        Dipole               -0.1422 Ry au,         -0.3613 Debye
        Dipole field         -0.0001 Ry au
 
        Potential amp.        0.0208 Ry
        Total length         73.7482 bohr
 
 
     Magnetic moment per site:
     atom:    1    charge:    3.2340    magn:    1.2657    constr:    0.0000
     atom:    2    charge:    3.2409    magn:    1.2679    constr:    0.0000
     atom:    3    charge:    3.2409    magn:    1.2679    constr:    0.0000
     atom:    4    charge:    3.2084    magn:    1.2514    constr:    0.0000
     atom:    5    charge:    3.2084    magn:    1.2514    constr:    0.0000
     atom:    6    charge:    3.2191    magn:    1.2702    constr:    0.0000
     atom:    7    charge:    3.2091    magn:    1.2687    constr:    0.0000
     atom:    8    charge:    3.2104    magn:    1.2656    constr:    0.0000
     atom:    9    charge:    3.2104    magn:    1.2655    constr:    0.0000
     atom:   10    charge:    3.1944    magn:    1.2657    constr:    0.0000
     atom:   11    charge:    3.1944    magn:    1.2657    constr:    0.0000
     atom:   12    charge:    3.1941    magn:    1.2649    constr:    0.0000
     atom:   13    charge:    3.1978    magn:    1.2642    constr:    0.0000
     atom:   14    charge:    3.1972    magn:    1.2618    constr:    0.0000
     atom:   15    charge:    3.1972    magn:    1.2618    constr:    0.0000
     atom:   16    charge:    3.1988    magn:    1.2622    constr:    0.0000
     atom:   17    charge:    3.1988    magn:    1.2622    constr:    0.0000
     atom:   18    charge:    3.1989    magn:    1.2629    constr:    0.0000
     atom:   19    charge:    3.1978    magn:    1.2626    constr:    0.0000
     atom:   20    charge:    3.1976    magn:    1.2630    constr:    0.0000
     atom:   21    charge:    3.1976    magn:    1.2630    constr:    0.0000
     atom:   22    charge:    3.1957    magn:    1.2676    constr:    0.0000
     atom:   23    charge:    3.1957    magn:    1.2676    constr:    0.0000
     atom:   24    charge:    3.1956    magn:    1.2633    constr:    0.0000
     atom:   25    charge:    3.1924    magn:    1.2666    constr:    0.0000
     atom:   26    charge:    3.1925    magn:    1.2661    constr:    0.0000
     atom:   27    charge:    3.1925    magn:    1.2661    constr:    0.0000
     atom:   28    charge:    3.2069    magn:    1.2641    constr:    0.0000
     atom:   29    charge:    3.2069    magn:    1.2641    constr:    0.0000
     atom:   30    charge:    3.2069    magn:    1.2635    constr:    0.0000
     atom:   31    charge:    3.2193    magn:    1.2649    constr:    0.0000
     atom:   32    charge:    3.2196    magn:    1.2647    constr:    0.0000
     atom:   33    charge:    3.2196    magn:    1.2647    constr:    0.0000
     atom:   34    charge:    3.2476    magn:    1.2584    constr:    0.0000
     atom:   35    charge:    3.2476    magn:    1.2584    constr:    0.0000
     atom:   36    charge:    3.2477    magn:    1.2583    constr:    0.0000
     atom:   37    charge:    0.5908    magn:    0.4737    constr:    0.0000

     total cpu time spent up to now is      717.9 secs

     total energy              =   -2895.67107316 Ry
     Harris-Foulkes estimate   =   -2895.46474050 Ry
     estimated scf accuracy    <       4.17025190 Ry

     total magnetization       =    75.70 Bohr mag/cell
     absolute magnetization    =    75.81 Bohr mag/cell

     iteration #  7     ecut=    44.10 Ry     beta=0.10
     Davidson diagonalization with overlap
     ethr =  7.05E-04,  avg # of iterations =  1.3

     negative rho (up, down):  5.824E-03 5.688E-03
 
     Adding external electric field

     Computed dipole along edir(3) : 
        Dipole               -0.2242 Ry au,         -0.5698 Debye
        Dipole field         -0.0002 Ry au
 
        Potential amp.        0.0328 Ry
        Total length         73.7482 bohr
 
 
     Adding external electric field

     Computed dipole along edir(3) : 
        Dipole               -0.2242 Ry au,         -0.5698 Debye
        Dipole field         -0.0002 Ry au
 
        Potential amp.        0.0328 Ry
        Total length         73.7482 bohr
 
 
     Magnetic moment per site:
     atom:    1    charge:    3.2314    magn:    1.2443    constr:    0.0000
     atom:    2    charge:    3.2377    magn:    1.2491    constr:    0.0000
     atom:    3    charge:    3.2377    magn:    1.2490    constr:    0.0000
     atom:    4    charge:    3.2060    magn:    1.2260    constr:    0.0000
     atom:    5    charge:    3.2060    magn:    1.2260    constr:    0.0000
     atom:    6    charge:    3.2150    magn:    1.2508    constr:    0.0000
     atom:    7    charge:    3.2058    magn:    1.2482    constr:    0.0000
     atom:    8    charge:    3.2072    magn:    1.2446    constr:    0.0000
     atom:    9    charge:    3.2072    magn:    1.2446    constr:    0.0000
     atom:   10    charge:    3.1979    magn:    1.2395    constr:    0.0000
     atom:   11    charge:    3.1979    magn:    1.2395    constr:    0.0000
     atom:   12    charge:    3.1986    magn:    1.2379    constr:    0.0000
     atom:   13    charge:    3.1964    magn:    1.2411    constr:    0.0000
     atom:   14    charge:    3.1964    magn:    1.2379    constr:    0.0000
     atom:   15    charge:    3.1964    magn:    1.2379    constr:    0.0000
     atom:   16    charge:    3.1973    magn:    1.2388    constr:    0.0000
     atom:   17    charge:    3.1973    magn:    1.2388    constr:    0.0000
     atom:   18    charge:    3.1970    magn:    1.2399    constr:    0.0000
     atom:   19    charge:    3.1967    magn:    1.2391    constr:    0.0000
     atom:   20    charge:    3.1963    magn:    1.2398    constr:    0.0000
     atom:   21    charge:    3.1963    magn:    1.2397    constr:    0.0000
     atom:   22    charge:    3.1963    magn:    1.2436    constr:    0.0000
     atom:   23    charge:    3.1963    magn:    1.2436    constr:    0.0000
     atom:   24    charge:    3.1958    magn:    1.2391    constr:    0.0000
     atom:   25    charge:    3.1984    magn:    1.2386    constr:    0.0000
     atom:   26    charge:    3.1982    magn:    1.2383    constr:    0.0000
     atom:   27    charge:    3.1982    magn:    1.2383    constr:    0.0000
     atom:   28    charge:    3.2076    magn:    1.2394    constr:    0.0000
     atom:   29    charge:    3.2076    magn:    1.2394    constr:    0.0000
     atom:   30    charge:    3.2072    magn:    1.2389    constr:    0.0000
     atom:   31    charge:    3.2170    magn:    1.2433    constr:    0.0000
     atom:   32    charge:    3.2170    magn:    1.2432    constr:    0.0000
     atom:   33    charge:    3.2170    magn:    1.2432    constr:    0.0000
     atom:   34    charge:    3.2384    magn:    1.2420    constr:    0.0000
     atom:   35    charge:    3.2384    magn:    1.2420    constr:    0.0000
     atom:   36    charge:    3.2382    magn:    1.2421    constr:    0.0000
     atom:   37    charge:    0.5936    magn:    0.4592    constr:    0.0000

     total cpu time spent up to now is      811.8 secs

     total energy              =   -2895.84092515 Ry
     Harris-Foulkes estimate   =   -2895.79081086 Ry
     estimated scf accuracy    <       3.85133836 Ry

     total magnetization       =    74.49 Bohr mag/cell
     absolute magnetization    =    74.80 Bohr mag/cell

     iteration #  8     ecut=    44.10 Ry     beta=0.10
     Davidson diagonalization with overlap
     ethr =  7.05E-04,  avg # of iterations =  1.0

     negative rho (up, down):  5.461E-03 6.319E-03
 
     Adding external electric field

     Computed dipole along edir(3) : 
        Dipole               -0.2082 Ry au,         -0.5292 Debye
        Dipole field         -0.0002 Ry au
 
        Potential amp.        0.0304 Ry
        Total length         73.7482 bohr
 
 
     Adding external electric field

     Computed dipole along edir(3) : 
        Dipole               -0.2082 Ry au,         -0.5292 Debye
        Dipole field         -0.0002 Ry au
 
        Potential amp.        0.0304 Ry
        Total length         73.7482 bohr
 
 
     Magnetic moment per site:
     atom:    1    charge:    3.2231    magn:    1.2207    constr:    0.0000
     atom:    2    charge:    3.2290    magn:    1.2285    constr:    0.0000
     atom:    3    charge:    3.2290    magn:    1.2285    constr:    0.0000
     atom:    4    charge:    3.2058    magn:    1.1929    constr:    0.0000
     atom:    5    charge:    3.2058    magn:    1.1929    constr:    0.0000
     atom:    6    charge:    3.2143    magn:    1.2238    constr:    0.0000
     atom:    7    charge:    3.2064    magn:    1.2201    constr:    0.0000
     atom:    8    charge:    3.2069    magn:    1.2168    constr:    0.0000
     atom:    9    charge:    3.2069    magn:    1.2168    constr:    0.0000
     atom:   10    charge:    3.1961    magn:    1.2130    constr:    0.0000
     atom:   11    charge:    3.1961    magn:    1.2130    constr:    0.0000
     atom:   12    charge:    3.1956    magn:    1.2124    constr:    0.0000
     atom:   13    charge:    3.1987    magn:    1.2111    constr:    0.0000
     atom:   14    charge:    3.1976    magn:    1.2083    constr:    0.0000
     atom:   15    charge:    3.1976    magn:    1.2083    constr:    0.0000
     atom:   16    charge:    3.1980    magn:    1.2098    constr:    0.0000
     atom:   17    charge:    3.1980    magn:    1.2098    constr:    0.0000
     atom:   18    charge:    3.1978    magn:    1.2111    constr:    0.0000
     atom:   19    charge:    3.1981    magn:    1.2096    constr:    0.0000
     atom:   20    charge:    3.1977    magn:    1.2104    constr:    0.0000
     atom:   21    charge:    3.1977    magn:    1.2104    constr:    0.0000
     atom:   22    charge:    3.1987    magn:    1.2138    constr:    0.0000
     atom:   23    charge:    3.1987    magn:    1.2138    constr:    0.0000
     atom:   24    charge:    3.1983    magn:    1.2089    constr:    0.0000
     atom:   25    charge:    3.1968    magn:    1.2121    constr:    0.0000
     atom:   26    charge:    3.1969    magn:    1.2115    constr:    0.0000
     atom:   27    charge:    3.1969    magn:    1.2115    constr:    0.0000
     atom:   28    charge:    3.2064    magn:    1.2112    constr:    0.0000
     atom:   29    charge:    3.2064    magn:    1.2112    constr:    0.0000
     atom:   30    charge:    3.2064    magn:    1.2104    constr:    0.0000
     atom:   31    charge:    3.2130    magn:    1.2177    constr:    0.0000
     atom:   32    charge:    3.2131    magn:    1.2173    constr:    0.0000
     atom:   33    charge:    3.2131    magn:    1.2173    constr:    0.0000
     atom:   34    charge:    3.2289    magn:    1.2194    constr:    0.0000
     atom:   35    charge:    3.2289    magn:    1.2194    constr:    0.0000
     atom:   36    charge:    3.2291    magn:    1.2193    constr:    0.0000
     atom:   37    charge:    0.5952    magn:    0.4399    constr:    0.0000

     total cpu time spent up to now is      904.9 secs

     total energy              =   -2896.04180967 Ry
     Harris-Foulkes estimate   =   -2895.89377141 Ry
     estimated scf accuracy    <       0.71879748 Ry

     total magnetization       =    73.59 Bohr mag/cell
     absolute magnetization    =    74.05 Bohr mag/cell

     iteration #  9     ecut=    44.10 Ry     beta=0.10
     Davidson diagonalization with overlap
     ethr =  2.19E-04,  avg # of iterations =  7.8

     negative rho (up, down):  6.863E-03 8.800E-03
 
     Adding external electric field

     Computed dipole along edir(3) : 
        Dipole               -0.1099 Ry au,         -0.2794 Debye
        Dipole field         -0.0001 Ry au
 
        Potential amp.        0.0161 Ry
        Total length         73.7482 bohr
 
 
     Adding external electric field

     Computed dipole along edir(3) : 
        Dipole               -0.1099 Ry au,         -0.2794 Debye
        Dipole field         -0.0001 Ry au
 
        Potential amp.        0.0161 Ry
        Total length         73.7482 bohr
 
 
     Magnetic moment per site:
     atom:    1    charge:    3.2233    magn:    1.1227    constr:    0.0000
     atom:    2    charge:    3.2308    magn:    1.1370    constr:    0.0000
     atom:    3    charge:    3.2308    magn:    1.1370    constr:    0.0000
     atom:    4    charge:    3.1928    magn:    1.0925    constr:    0.0000
     atom:    5    charge:    3.1928    magn:    1.0925    constr:    0.0000
     atom:    6    charge:    3.2046    magn:    1.1423    constr:    0.0000
     atom:    7    charge:    3.2004    magn:    1.1330    constr:    0.0000
     atom:    8    charge:    3.2020    magn:    1.1284    constr:    0.0000
     atom:    9    charge:    3.2020    magn:    1.1284    constr:    0.0000
     atom:   10    charge:    3.1926    magn:    1.1227    constr:    0.0000
     atom:   11    charge:    3.1926    magn:    1.1227    constr:    0.0000
     atom:   12    charge:    3.1923    magn:    1.1220    constr:    0.0000
     atom:   13    charge:    3.1943    magn:    1.1217    constr:    0.0000
     atom:   14    charge:    3.1930    magn:    1.1177    constr:    0.0000
     atom:   15    charge:    3.1930    magn:    1.1177    constr:    0.0000
     atom:   16    charge:    3.1978    magn:    1.1183    constr:    0.0000
     atom:   17    charge:    3.1978    magn:    1.1183    constr:    0.0000
     atom:   18    charge:    3.1985    magn:    1.1195    constr:    0.0000
     atom:   19    charge:    3.1978    magn:    1.1176    constr:    0.0000
     atom:   20    charge:    3.1980    magn:    1.1176    constr:    0.0000
     atom:   21    charge:    3.1980    magn:    1.1176    constr:    0.0000
     atom:   22    charge:    3.1938    magn:    1.1243    constr:    0.0000
     atom:   23    charge:    3.1938    magn:    1.1243    constr:    0.0000
     atom:   24    charge:    3.1945    magn:    1.1174    constr:    0.0000
     atom:   25    charge:    3.1921    magn:    1.1226    constr:    0.0000
     atom:   26    charge:    3.1919    magn:    1.1222    constr:    0.0000
     atom:   27    charge:    3.1919    magn:    1.1222    constr:    0.0000
     atom:   28    charge:    3.1989    magn:    1.1226    constr:    0.0000
     atom:   29    charge:    3.1989    magn:    1.1226    constr:    0.0000
     atom:   30    charge:    3.1981    magn:    1.1222    constr:    0.0000
     atom:   31    charge:    3.2034    magn:    1.1328    constr:    0.0000
     atom:   32    charge:    3.2026    magn:    1.1323    constr:    0.0000
     atom:   33    charge:    3.2026    magn:    1.1323    constr:    0.0000
     atom:   34    charge:    3.2271    magn:    1.1256    constr:    0.0000
     atom:   35    charge:    3.2271    magn:    1.1256    constr:    0.0000
     atom:   36    charge:    3.2264    magn:    1.1264    constr:    0.0000
     atom:   37    charge:    0.5979    magn:    0.3753    constr:    0.0000

     total cpu time spent up to now is     1027.2 secs

     total energy              =   -2896.46373151 Ry
     Harris-Foulkes estimate   =   -2896.07119604 Ry
     estimated scf accuracy    <       0.92230858 Ry

     total magnetization       =    72.26 Bohr mag/cell
     absolute magnetization    =    72.96 Bohr mag/cell

     iteration # 10     ecut=    44.10 Ry     beta=0.10
     Davidson diagonalization with overlap
     ethr =  2.19E-04,  avg # of iterations =  2.4

     negative rho (up, down):  1.046E-02 1.164E-02
 
     Adding external electric field

     Computed dipole along edir(3) : 
        Dipole               -0.0828 Ry au,         -0.2106 Debye
        Dipole field         -0.0001 Ry au
 
        Potential amp.        0.0121 Ry
        Total length         73.7482 bohr
 
 
     Adding external electric field

     Computed dipole along edir(3) : 
        Dipole               -0.0828 Ry au,         -0.2106 Debye
        Dipole field         -0.0001 Ry au
 
        Potential amp.        0.0121 Ry
        Total length         73.7482 bohr
 
 
     Magnetic moment per site:
     atom:    1    charge:    3.2247    magn:    1.0632    constr:    0.0000
     atom:    2    charge:    3.2313    magn:    1.0842    constr:    0.0000
     atom:    3    charge:    3.2313    magn:    1.0842    constr:    0.0000
     atom:    4    charge:    3.1906    magn:    1.0275    constr:    0.0000
     atom:    5    charge:    3.1906    magn:    1.0275    constr:    0.0000
     atom:    6    charge:    3.2047    magn:    1.0901    constr:    0.0000
     atom:    7    charge:    3.1994    magn:    1.0797    constr:    0.0000
     atom:    8    charge:    3.1967    magn:    1.0780    constr:    0.0000
     atom:    9    charge:    3.1967    magn:    1.0780    constr:    0.0000
     atom:   10    charge:    3.1918    magn:    1.0676    constr:    0.0000
     atom:   11    charge:    3.1918    magn:    1.0676    constr:    0.0000
     atom:   12    charge:    3.1912    magn:    1.0673    constr:    0.0000
     atom:   13    charge:    3.1963    magn:    1.0646    constr:    0.0000
     atom:   14    charge:    3.1953    magn:    1.0594    constr:    0.0000
     atom:   15    charge:    3.1953    magn:    1.0594    constr:    0.0000
     atom:   16    charge:    3.1963    magn:    1.0637    constr:    0.0000
     atom:   17    charge:    3.1963    magn:    1.0637    constr:    0.0000
     atom:   18    charge:    3.1952    magn:    1.0665    constr:    0.0000
     atom:   19    charge:    3.1957    magn:    1.0635    constr:    0.0000
     atom:   20    charge:    3.1946    magn:    1.0641    constr:    0.0000
     atom:   21    charge:    3.1946    magn:    1.0641    constr:    0.0000
     atom:   22    charge:    3.1947    magn:    1.0679    constr:    0.0000
     atom:   23    charge:    3.1947    magn:    1.0679    constr:    0.0000
     atom:   24    charge:    3.1942    magn:    1.0615    constr:    0.0000
     atom:   25    charge:    3.1909    magn:    1.0679    constr:    0.0000
     atom:   26    charge:    3.1904    magn:    1.0678    constr:    0.0000
     atom:   27    charge:    3.1904    magn:    1.0678    constr:    0.0000
     atom:   28    charge:    3.1944    magn:    1.0705    constr:    0.0000
     atom:   29    charge:    3.1944    magn:    1.0705    constr:    0.0000
     atom:   30    charge:    3.1938    magn:    1.0701    constr:    0.0000
     atom:   31    charge:    3.2031    magn:    1.0794    constr:    0.0000
     atom:   32    charge:    3.2034    magn:    1.0778    constr:    0.0000
     atom:   33    charge:    3.2034    magn:    1.0778    constr:    0.0000
     atom:   34    charge:    3.2267    magn:    1.0714    constr:    0.0000
     atom:   35    charge:    3.2267    magn:    1.0714    constr:    0.0000
     atom:   36    charge:    3.2280    magn:    1.0708    constr:    0.0000
     atom:   37    charge:    0.5969    magn:    0.3336    constr:    0.0000

     total cpu time spent up to now is     1125.5 secs

     total energy              =   -2896.76199196 Ry
     Harris-Foulkes estimate   =   -2896.56860229 Ry
     estimated scf accuracy    <       1.95815472 Ry

     total magnetization       =    68.92 Bohr mag/cell
     absolute magnetization    =    70.94 Bohr mag/cell

     iteration # 11     ecut=    44.10 Ry     beta=0.10
     Davidson diagonalization with overlap
     ethr =  2.19E-04,  avg # of iterations =  5.1

     negative rho (up, down):  1.527E-02 1.525E-02
 
     Adding external electric field

     Computed dipole along edir(3) : 
        Dipole               -0.1270 Ry au,         -0.3229 Debye
        Dipole field         -0.0001 Ry au
 
        Potential amp.        0.0186 Ry
        Total length         73.7482 bohr
 
 
     Adding external electric field

     Computed dipole along edir(3) : 
        Dipole               -0.1270 Ry au,         -0.3229 Debye
        Dipole field         -0.0001 Ry au
 
        Potential amp.        0.0186 Ry
        Total length         73.7482 bohr
 
 
     Magnetic moment per site:
     atom:    1    charge:    3.2207    magn:    0.9962    constr:    0.0000
     atom:    2    charge:    3.2275    magn:    1.0284    constr:    0.0000
     atom:    3    charge:    3.2275    magn:    1.0284    constr:    0.0000
     atom:    4    charge:    3.1934    magn:    0.9460    constr:    0.0000
     atom:    5    charge:    3.1934    magn:    0.9460    constr:    0.0000
     atom:    6    charge:    3.2067    magn:    1.0304    constr:    0.0000
     atom:    7    charge:    3.2017    magn:    1.0176    constr:    0.0000
     atom:    8    charge:    3.1990    magn:    1.0162    constr:    0.0000
     atom:    9    charge:    3.1990    magn:    1.0161    constr:    0.0000
     atom:   10    charge:    3.1935    magn:    1.0034    constr:    0.0000
     atom:   11    charge:    3.1935    magn:    1.0034    constr:    0.0000
     atom:   12    charge:    3.1942    magn:    1.0026    constr:    0.0000
     atom:   13    charge:    3.1967    magn:    1.0009    constr:    0.0000
     atom:   14    charge:    3.1967    magn:    0.9934    constr:    0.0000
     atom:   15    charge:    3.1967    magn:    0.9934    constr:    0.0000
     atom:   16    charge:    3.1966    magn:    0.9992    constr:    0.0000
     atom:   17    charge:    3.1966    magn:    0.9992    constr:    0.0000
     atom:   18    charge:    3.1961    magn:    1.0019    constr:    0.0000
     atom:   19    charge:    3.1964    magn:    0.9999    constr:    0.0000
     atom:   20    charge:    3.1959    magn:    0.9990    constr:    0.0000
     atom:   21    charge:    3.1959    magn:    0.9990    constr:    0.0000
     atom:   22    charge:    3.1967    magn:    1.0030    constr:    0.0000
     atom:   23    charge:    3.1967    magn:    1.0030    constr:    0.0000
     atom:   24    charge:    3.1965    magn:    0.9973    constr:    0.0000
     atom:   25    charge:    3.1946    magn:    1.0028    constr:    0.0000
     atom:   26    charge:    3.1947    magn:    1.0025    constr:    0.0000
     atom:   27    charge:    3.1947    magn:    1.0025    constr:    0.0000
     atom:   28    charge:    3.1985    magn:    1.0060    constr:    0.0000
     atom:   29    charge:    3.1985    magn:    1.0060    constr:    0.0000
     atom:   30    charge:    3.1986    magn:    1.0057    constr:    0.0000
     atom:   31    charge:    3.2038    magn:    1.0199    constr:    0.0000
     atom:   32    charge:    3.2036    magn:    1.0182    constr:    0.0000
     atom:   33    charge:    3.2036    magn:    1.0182    constr:    0.0000
     atom:   34    charge:    3.2239    magn:    1.0133    constr:    0.0000
     atom:   35    charge:    3.2239    magn:    1.0133    constr:    0.0000
     atom:   36    charge:    3.2237    magn:    1.0134    constr:    0.0000
     atom:   37    charge:    0.5891    magn:    0.2764    constr:    0.0000

     total cpu time spent up to now is     1234.2 secs

     total energy              =   -2896.84795427 Ry
     Harris-Foulkes estimate   =   -2896.79059464 Ry
     estimated scf accuracy    <       3.20139236 Ry

     total magnetization       =    67.14 Bohr mag/cell
     absolute magnetization    =    70.21 Bohr mag/cell

     iteration # 12     ecut=    44.10 Ry     beta=0.10
     Davidson diagonalization with overlap
     ethr =  2.19E-04,  avg # of iterations =  7.7

     negative rho (up, down):  1.338E-02 1.444E-02
 
     Adding external electric field

     Computed dipole along edir(3) : 
        Dipole               -0.1434 Ry au,         -0.3644 Debye
        Dipole field         -0.0001 Ry au
 
        Potential amp.        0.0210 Ry
        Total length         73.7482 bohr
 
 
     Adding external electric field

     Computed dipole along edir(3) : 
        Dipole               -0.1434 Ry au,         -0.3644 Debye
        Dipole field         -0.0001 Ry au
 
        Potential amp.        0.0210 Ry
        Total length         73.7482 bohr
 
 
     Magnetic moment per site:
     atom:    1    charge:    3.2173    magn:    0.9938    constr:    0.0000
     atom:    2    charge:    3.2184    magn:    1.0344    constr:    0.0000
     atom:    3    charge:    3.2184    magn:    1.0344    constr:    0.0000
     atom:    4    charge:    3.1954    magn:    0.9401    constr:    0.0000
     atom:    5    charge:    3.1954    magn:    0.9401    constr:    0.0000
     atom:    6    charge:    3.2026    magn:    1.0342    constr:    0.0000
     atom:    7    charge:    3.2018    magn:    1.0188    constr:    0.0000
     atom:    8    charge:    3.2003    magn:    1.0167    constr:    0.0000
     atom:    9    charge:    3.2003    magn:    1.0167    constr:    0.0000
     atom:   10    charge:    3.1984    magn:    1.0015    constr:    0.0000
     atom:   11    charge:    3.1984    magn:    1.0015    constr:    0.0000
     atom:   12    charge:    3.1969    magn:    1.0025    constr:    0.0000
     atom:   13    charge:    3.1998    magn:    1.0003    constr:    0.0000
     atom:   14    charge:    3.1972    magn:    0.9942    constr:    0.0000
     atom:   15    charge:    3.1972    magn:    0.9942    constr:    0.0000
     atom:   16    charge:    3.1998    magn:    0.9976    constr:    0.0000
     atom:   17    charge:    3.1998    magn:    0.9976    constr:    0.0000
     atom:   18    charge:    3.1994    magn:    1.0002    constr:    0.0000
     atom:   19    charge:    3.2001    magn:    0.9986    constr:    0.0000
     atom:   20    charge:    3.1993    magn:    0.9973    constr:    0.0000
     atom:   21    charge:    3.1993    magn:    0.9973    constr:    0.0000
     atom:   22    charge:    3.1993    magn:    1.0022    constr:    0.0000
     atom:   23    charge:    3.1993    magn:    1.0022    constr:    0.0000
     atom:   24    charge:    3.1995    magn:    0.9973    constr:    0.0000
     atom:   25    charge:    3.1981    magn:    1.0023    constr:    0.0000
     atom:   26    charge:    3.1977    magn:    1.0025    constr:    0.0000
     atom:   27    charge:    3.1977    magn:    1.0025    constr:    0.0000
     atom:   28    charge:    3.1992    magn:    1.0071    constr:    0.0000
     atom:   29    charge:    3.1992    magn:    1.0071    constr:    0.0000
     atom:   30    charge:    3.1980    magn:    1.0078    constr:    0.0000
     atom:   31    charge:    3.2042    magn:    1.0209    constr:    0.0000
     atom:   32    charge:    3.2041    magn:    1.0191    constr:    0.0000
     atom:   33    charge:    3.2041    magn:    1.0191    constr:    0.0000
     atom:   34    charge:    3.2159    magn:    1.0184    constr:    0.0000
     atom:   35    charge:    3.2159    magn:    1.0184    constr:    0.0000
     atom:   36    charge:    3.2181    magn:    1.0166    constr:    0.0000
     atom:   37    charge:    0.5842    magn:    0.2651    constr:    0.0000

     total cpu time spent up to now is     1358.5 secs

     total energy              =   -2896.85603112 Ry
     Harris-Foulkes estimate   =   -2896.88839079 Ry
     estimated scf accuracy    <       0.49195050 Ry

     total magnetization       =    65.24 Bohr mag/cell
     absolute magnetization    =    69.51 Bohr mag/cell

     iteration # 13     ecut=    44.10 Ry     beta=0.10
     Davidson diagonalization with overlap
     ethr =  1.50E-04,  avg # of iterations =  3.4

     negative rho (up, down):  1.446E-02 1.560E-02
 
     Adding external electric field

     Computed dipole along edir(3) : 
        Dipole               -0.1794 Ry au,         -0.4559 Debye
        Dipole field         -0.0002 Ry au
 
        Potential amp.        0.0262 Ry
        Total length         73.7482 bohr
 
 
     Adding external electric field

     Computed dipole along edir(3) : 
        Dipole               -0.1794 Ry au,         -0.4559 Debye
        Dipole field         -0.0002 Ry au
 
        Potential amp.        0.0262 Ry
        Total length         73.7482 bohr
 
 
     Magnetic moment per site:
     atom:    1    charge:    3.2126    magn:    0.9664    constr:    0.0000
     atom:    2    charge:    3.2180    magn:    1.0114    constr:    0.0000
     atom:    3    charge:    3.2180    magn:    1.0114    constr:    0.0000
     atom:    4    charge:    3.1958    magn:    0.9033    constr:    0.0000
     atom:    5    charge:    3.1958    magn:    0.9033    constr:    0.0000
     atom:    6    charge:    3.2062    magn:    1.0087    constr:    0.0000
     atom:    7    charge:    3.2023    magn:    0.9946    constr:    0.0000
     atom:    8    charge:    3.2011    magn:    0.9925    constr:    0.0000
     atom:    9    charge:    3.2011    magn:    0.9925    constr:    0.0000
     atom:   10    charge:    3.1992    magn:    0.9754    constr:    0.0000
     atom:   11    charge:    3.1992    magn:    0.9754    constr:    0.0000
     atom:   12    charge:    3.1998    magn:    0.9750    constr:    0.0000
     atom:   13    charge:    3.2005    magn:    0.9745    constr:    0.0000
     atom:   14    charge:    3.2000    magn:    0.9660    constr:    0.0000
     atom:   15    charge:    3.2000    magn:    0.9660    constr:    0.0000
     atom:   16    charge:    3.1998    magn:    0.9715    constr:    0.0000
     atom:   17    charge:    3.1998    magn:    0.9715    constr:    0.0000
     atom:   18    charge:    3.2001    magn:    0.9736    constr:    0.0000
     atom:   19    charge:    3.1999    magn:    0.9736    constr:    0.0000
     atom:   20    charge:    3.1996    magn:    0.9710    constr:    0.0000
     atom:   21    charge:    3.1996    magn:    0.9710    constr:    0.0000
     atom:   22    charge:    3.2009    magn:    0.9752    constr:    0.0000
     atom:   23    charge:    3.2009    magn:    0.9752    constr:    0.0000
     atom:   24    charge:    3.2013    magn:    0.9715    constr:    0.0000
     atom:   25    charge:    3.2002    magn:    0.9758    constr:    0.0000
     atom:   26    charge:    3.2002    magn:    0.9759    constr:    0.0000
     atom:   27    charge:    3.2002    magn:    0.9759    constr:    0.0000
     atom:   28    charge:    3.2010    magn:    0.9819    constr:    0.0000
     atom:   29    charge:    3.2010    magn:    0.9819    constr:    0.0000
     atom:   30    charge:    3.2007    magn:    0.9823    constr:    0.0000
     atom:   31    charge:    3.2055    magn:    0.9972    constr:    0.0000
     atom:   32    charge:    3.2053    magn:    0.9954    constr:    0.0000
     atom:   33    charge:    3.2053    magn:    0.9954    constr:    0.0000
     atom:   34    charge:    3.2162    magn:    0.9947    constr:    0.0000
     atom:   35    charge:    3.2162    magn:    0.9947    constr:    0.0000
     atom:   36    charge:    3.2167    magn:    0.9939    constr:    0.0000
     atom:   37    charge:    0.5783    magn:    0.2331    constr:    0.0000

     total cpu time spent up to now is     1460.7 secs

     total energy              =   -2896.89697095 Ry
     Harris-Foulkes estimate   =   -2896.87599909 Ry
     estimated scf accuracy    <       0.20038120 Ry

     total magnetization       =    64.79 Bohr mag/cell
     absolute magnetization    =    69.15 Bohr mag/cell

     iteration # 14     ecut=    44.10 Ry     beta=0.10
     Davidson diagonalization with overlap
     ethr =  6.11E-05,  avg # of iterations =  5.7

     negative rho (up, down):  1.404E-02 1.569E-02
 
     Adding external electric field

     Computed dipole along edir(3) : 
        Dipole               -0.2128 Ry au,         -0.5408 Debye
        Dipole field         -0.0002 Ry au
 
        Potential amp.        0.0311 Ry
        Total length         73.7482 bohr
 
 
     Adding external electric field

     Computed dipole along edir(3) : 
        Dipole               -0.2128 Ry au,         -0.5408 Debye
        Dipole field         -0.0002 Ry au
 
        Potential amp.        0.0311 Ry
        Total length         73.7482 bohr
 
 
     Magnetic moment per site:
     atom:    1    charge:    3.2142    magn:    0.9528    constr:    0.0000
     atom:    2    charge:    3.2176    magn:    1.0044    constr:    0.0000
     atom:    3    charge:    3.2176    magn:    1.0044    constr:    0.0000
     atom:    4    charge:    3.1956    magn:    0.8857    constr:    0.0000
     atom:    5    charge:    3.1956    magn:    0.8857    constr:    0.0000
     atom:    6    charge:    3.2065    magn:    1.0003    constr:    0.0000
     atom:    7    charge:    3.2043    magn:    0.9843    constr:    0.0000
     atom:    8    charge:    3.2014    magn:    0.9834    constr:    0.0000
     atom:    9    charge:    3.2014    magn:    0.9834    constr:    0.0000
     atom:   10    charge:    3.1993    magn:    0.9648    constr:    0.0000
     atom:   11    charge:    3.1993    magn:    0.9648    constr:    0.0000
     atom:   12    charge:    3.1998    magn:    0.9644    constr:    0.0000
     atom:   13    charge:    3.2008    magn:    0.9642    constr:    0.0000
     atom:   14    charge:    3.2008    magn:    0.9551    constr:    0.0000
     atom:   15    charge:    3.2008    magn:    0.9551    constr:    0.0000
     atom:   16    charge:    3.2000    magn:    0.9609    constr:    0.0000
     atom:   17    charge:    3.2000    magn:    0.9609    constr:    0.0000
     atom:   18    charge:    3.1995    magn:    0.9632    constr:    0.0000
     atom:   19    charge:    3.1999    magn:    0.9637    constr:    0.0000
     atom:   20    charge:    3.1993    magn:    0.9607    constr:    0.0000
     atom:   21    charge:    3.1993    magn:    0.9607    constr:    0.0000
     atom:   22    charge:    3.2010    magn:    0.9645    constr:    0.0000
     atom:   23    charge:    3.2010    magn:    0.9645    constr:    0.0000
     atom:   24    charge:    3.2009    magn:    0.9621    constr:    0.0000
     atom:   25    charge:    3.2004    magn:    0.9655    constr:    0.0000
     atom:   26    charge:    3.2006    magn:    0.9656    constr:    0.0000
     atom:   27    charge:    3.2006    magn:    0.9656    constr:    0.0000
     atom:   28    charge:    3.2019    magn:    0.9724    constr:    0.0000
     atom:   29    charge:    3.2019    magn:    0.9724    constr:    0.0000
     atom:   30    charge:    3.2022    magn:    0.9724    constr:    0.0000
     atom:   31    charge:    3.2059    magn:    0.9886    constr:    0.0000
     atom:   32    charge:    3.2057    magn:    0.9871    constr:    0.0000
     atom:   33    charge:    3.2057    magn:    0.9871    constr:    0.0000
     atom:   34    charge:    3.2177    magn:    0.9858    constr:    0.0000
     atom:   35    charge:    3.2177    magn:    0.9857    constr:    0.0000
     atom:   36    charge:    3.2176    magn:    0.9853    constr:    0.0000
     atom:   37    charge:    0.5757    magn:    0.2148    constr:    0.0000

     total cpu time spent up to now is     1573.9 secs

     total energy              =   -2896.91463985 Ry
     Harris-Foulkes estimate   =   -2896.90609801 Ry
     estimated scf accuracy    <       0.03272102 Ry

     total magnetization       =    63.87 Bohr mag/cell
     absolute magnetization    =    68.79 Bohr mag/cell

     iteration # 15     ecut=    44.10 Ry     beta=0.10
     Davidson diagonalization with overlap
     ethr =  9.98E-06,  avg # of iterations = 11.1

     negative rho (up, down):  1.334E-02 1.556E-02
 
     Adding external electric field

     Computed dipole along edir(3) : 
        Dipole               -0.1745 Ry au,         -0.4434 Debye
        Dipole field         -0.0002 Ry au
 
        Potential amp.        0.0255 Ry
        Total length         73.7482 bohr
 
 
     Adding external electric field

     Computed dipole along edir(3) : 
        Dipole               -0.1745 Ry au,         -0.4434 Debye
        Dipole field         -0.0002 Ry au
 
        Potential amp.        0.0255 Ry
        Total length         73.7482 bohr
 
 
     Magnetic moment per site:
     atom:    1    charge:    3.2136    magn:    0.9463    constr:    0.0000
     atom:    2    charge:    3.2181    magn:    1.0010    constr:    0.0000
     atom:    3    charge:    3.2181    magn:    1.0010    constr:    0.0000
     atom:    4    charge:    3.1959    magn:    0.8747    constr:    0.0000
     atom:    5    charge:    3.1959    magn:    0.8747    constr:    0.0000
     atom:    6    charge:    3.2069    magn:    0.9958    constr:    0.0000
     atom:    7    charge:    3.2036    magn:    0.9803    constr:    0.0000
     atom:    8    charge:    3.2019    magn:    0.9785    constr:    0.0000
     atom:    9    charge:    3.2019    magn:    0.9785    constr:    0.0000
     atom:   10    charge:    3.1994    magn:    0.9589    constr:    0.0000
     atom:   11    charge:    3.1994    magn:    0.9589    constr:    0.0000
     atom:   12    charge:    3.2000    magn:    0.9583    constr:    0.0000
     atom:   13    charge:    3.2003    magn:    0.9591    constr:    0.0000
     atom:   14    charge:    3.2002    magn:    0.9499    constr:    0.0000
     atom:   15    charge:    3.2002    magn:    0.9499    constr:    0.0000
     atom:   16    charge:    3.1998    magn:    0.9553    constr:    0.0000
     atom:   17    charge:    3.1998    magn:    0.9553    constr:    0.0000
     atom:   18    charge:    3.1997    magn:    0.9572    constr:    0.0000
     atom:   19    charge:    3.1998    magn:    0.9584    constr:    0.0000
     atom:   20    charge:    3.1994    magn:    0.9549    constr:    0.0000
     atom:   21    charge:    3.1994    magn:    0.9549    constr:    0.0000
     atom:   22    charge:    3.2009    magn:    0.9588    constr:    0.0000
     atom:   23    charge:    3.2009    magn:    0.9588    constr:    0.0000
     atom:   24    charge:    3.2010    magn:    0.9569    constr:    0.0000
     atom:   25    charge:    3.2005    magn:    0.9599    constr:    0.0000
     atom:   26    charge:    3.2007    magn:    0.9600    constr:    0.0000
     atom:   27    charge:    3.2007    magn:    0.9600    constr:    0.0000
     atom:   28    charge:    3.2024    magn:    0.9675    constr:    0.0000
     atom:   29    charge:    3.2024    magn:    0.9675    constr:    0.0000
     atom:   30    charge:    3.2024    magn:    0.9676    constr:    0.0000
     atom:   31    charge:    3.2074    magn:    0.9833    constr:    0.0000
     atom:   32    charge:    3.2073    magn:    0.9818    constr:    0.0000
     atom:   33    charge:    3.2073    magn:    0.9818    constr:    0.0000
     atom:   34    charge:    3.2177    magn:    0.9821    constr:    0.0000
     atom:   35    charge:    3.2177    magn:    0.9821    constr:    0.0000
     atom:   36    charge:    3.2183    magn:    0.9810    constr:    0.0000
     atom:   37    charge:    0.5741    magn:    0.2026    constr:    0.0000

     total cpu time spent up to now is     1713.6 secs

     total energy              =   -2896.92070048 Ry
     Harris-Foulkes estimate   =   -2896.91713501 Ry
     estimated scf accuracy    <       0.03275366 Ry

     total magnetization       =    63.44 Bohr mag/cell
     absolute magnetization    =    68.65 Bohr mag/cell

     iteration # 16     ecut=    44.10 Ry     beta=0.10
     Davidson diagonalization with overlap
     ethr =  9.98E-06,  avg # of iterations =  1.0

     negative rho (up, down):  1.240E-02 1.519E-02
 
     Adding external electric field

     Computed dipole along edir(3) : 
        Dipole               -0.2238 Ry au,         -0.5687 Debye
        Dipole field         -0.0002 Ry au
 
        Potential amp.        0.0327 Ry
        Total length         73.7482 bohr
 
 
     Adding external electric field

     Computed dipole along edir(3) : 
        Dipole               -0.2238 Ry au,         -0.5687 Debye
        Dipole field         -0.0002 Ry au
 
        Potential amp.        0.0327 Ry
        Total length         73.7482 bohr
 
 
     Magnetic moment per site:
     atom:    1    charge:    3.2135    magn:    0.9466    constr:    0.0000
     atom:    2    charge:    3.2181    magn:    1.0012    constr:    0.0000
     atom:    3    charge:    3.2181    magn:    1.0011    constr:    0.0000
     atom:    4    charge:    3.1964    magn:    0.8748    constr:    0.0000
     atom:    5    charge:    3.1964    magn:    0.8748    constr:    0.0000
     atom:    6    charge:    3.2072    magn:    0.9958    constr:    0.0000
     atom:    7    charge:    3.2038    magn:    0.9806    constr:    0.0000
     atom:    8    charge:    3.2023    magn:    0.9787    constr:    0.0000
     atom:    9    charge:    3.2023    magn:    0.9787    constr:    0.0000
     atom:   10    charge:    3.1997    magn:    0.9592    constr:    0.0000
     atom:   11    charge:    3.1997    magn:    0.9592    constr:    0.0000
     atom:   12    charge:    3.2003    magn:    0.9586    constr:    0.0000
     atom:   13    charge:    3.2004    magn:    0.9595    constr:    0.0000
     atom:   14    charge:    3.2003    magn:    0.9503    constr:    0.0000
     atom:   15    charge:    3.2003    magn:    0.9503    constr:    0.0000
     atom:   16    charge:    3.1999    magn:    0.9557    constr:    0.0000
     atom:   17    charge:    3.1999    magn:    0.9557    constr:    0.0000
     atom:   18    charge:    3.2000    magn:    0.9575    constr:    0.0000
     atom:   19    charge:    3.1999    magn:    0.9589    constr:    0.0000
     atom:   20    charge:    3.1996    magn:    0.9552    constr:    0.0000
     atom:   21    charge:    3.1996    magn:    0.9552    constr:    0.0000
     atom:   22    charge:    3.2009    magn:    0.9593    constr:    0.0000
     atom:   23    charge:    3.2009    magn:    0.9593    constr:    0.0000
     atom:   24    charge:    3.2011    magn:    0.9574    constr:    0.0000
     atom:   25    charge:    3.2005    magn:    0.9604    constr:    0.0000
     atom:   26    charge:    3.2006    magn:    0.9606    constr:    0.0000
     atom:   27    charge:    3.2006    magn:    0.9606    constr:    0.0000
     atom:   28    charge:    3.2022    magn:    0.9681    constr:    0.0000
     atom:   29    charge:    3.2022    magn:    0.9681    constr:    0.0000
     atom:   30    charge:    3.2022    magn:    0.9683    constr:    0.0000
     atom:   31    charge:    3.2073    magn:    0.9838    constr:    0.0000
     atom:   32    charge:    3.2072    magn:    0.9823    constr:    0.0000
     atom:   33    charge:    3.2072    magn:    0.9823    constr:    0.0000
     atom:   34    charge:    3.2175    magn:    0.9826    constr:    0.0000
     atom:   35    charge:    3.2175    magn:    0.9826    constr:    0.0000
     atom:   36    charge:    3.2181    magn:    0.9814    constr:    0.0000
     atom:   37    charge:    0.5737    magn:    0.2025    constr:    0.0000

     total cpu time spent up to now is     1806.3 secs

     total energy              =   -2896.91900762 Ry
     Harris-Foulkes estimate   =   -2896.92503689 Ry
     estimated scf accuracy    <       0.58301716 Ry

     total magnetization       =    63.25 Bohr mag/cell
     absolute magnetization    =    68.60 Bohr mag/cell

     iteration # 17     ecut=    44.10 Ry     beta=0.10
     Davidson diagonalization with overlap
     ethr =  9.98E-06,  avg # of iterations =  1.0

     negative rho (up, down):  1.164E-02 1.523E-02
 
     Adding external electric field

     Computed dipole along edir(3) : 
        Dipole               -0.2303 Ry au,         -0.5853 Debye
        Dipole field         -0.0002 Ry au
 
        Potential amp.        0.0337 Ry
        Total length         73.7482 bohr
 
 
     Adding external electric field

     Computed dipole along edir(3) : 
        Dipole               -0.2303 Ry au,         -0.5853 Debye
        Dipole field         -0.0002 Ry au
 
        Potential amp.        0.0337 Ry
        Total length         73.7482 bohr
 
 
     Magnetic moment per site:
     atom:    1    charge:    3.2136    magn:    0.9399    constr:    0.0000
     atom:    2    charge:    3.2190    magn:    1.0000    constr:    0.0000
     atom:    3    charge:    3.2190    magn:    1.0000    constr:    0.0000
     atom:    4    charge:    3.1967    magn:    0.8612    constr:    0.0000
     atom:    5    charge:    3.1967    magn:    0.8612    constr:    0.0000
     atom:    6    charge:    3.2082    magn:    0.9921    constr:    0.0000
     atom:    7    charge:    3.2039    magn:    0.9774    constr:    0.0000
     atom:    8    charge:    3.2028    magn:    0.9750    constr:    0.0000
     atom:    9    charge:    3.2028    magn:    0.9750    constr:    0.0000
     atom:   10    charge:    3.1998    magn:    0.9538    constr:    0.0000
     atom:   11    charge:    3.1998    magn:    0.9538    constr:    0.0000
     atom:   12    charge:    3.2003    magn:    0.9531    constr:    0.0000
     atom:   13    charge:    3.2002    magn:    0.9551    constr:    0.0000
     atom:   14    charge:    3.2000    magn:    0.9458    constr:    0.0000
     atom:   15    charge:    3.2000    magn:    0.9458    constr:    0.0000
     atom:   16    charge:    3.1997    magn:    0.9509    constr:    0.0000
     atom:   17    charge:    3.1997    magn:    0.9509    constr:    0.0000
     atom:   18    charge:    3.1998    magn:    0.9522    constr:    0.0000
     atom:   19    charge:    3.1995    magn:    0.9550    constr:    0.0000
     atom:   20    charge:    3.1991    magn:    0.9507    constr:    0.0000
     atom:   21    charge:    3.1991    magn:    0.9507    constr:    0.0000
     atom:   22    charge:    3.2004    magn:    0.9545    constr:    0.0000
     atom:   23    charge:    3.2004    magn:    0.9545    constr:    0.0000
     atom:   24    charge:    3.2007    magn:    0.9538    constr:    0.0000
     atom:   25    charge:    3.2005    magn:    0.9555    constr:    0.0000
     atom:   26    charge:    3.2005    magn:    0.9560    constr:    0.0000
     atom:   27    charge:    3.2005    magn:    0.9560    constr:    0.0000
     atom:   28    charge:    3.2023    magn:    0.9649    constr:    0.0000
     atom:   29    charge:    3.2023    magn:    0.9649    constr:    0.0000
     atom:   30    charge:    3.2022    magn:    0.9650    constr:    0.0000
     atom:   31    charge:    3.2079    magn:    0.9806    constr:    0.0000
     atom:   32    charge:    3.2076    magn:    0.9794    constr:    0.0000
     atom:   33    charge:    3.2076    magn:    0.9794    constr:    0.0000
     atom:   34    charge:    3.2191    magn:    0.9800    constr:    0.0000
     atom:   35    charge:    3.2191    magn:    0.9800    constr:    0.0000
     atom:   36    charge:    3.2187    magn:    0.9795    constr:    0.0000
     atom:   37    charge:    0.5716    magn:    0.1844    constr:    0.0000

     total cpu time spent up to now is     1899.2 secs

     total energy              =   -2896.92734244 Ry
     Harris-Foulkes estimate   =   -2896.92253214 Ry
     estimated scf accuracy    <       0.01388872 Ry

     total magnetization       =    63.20 Bohr mag/cell
     absolute magnetization    =    68.58 Bohr mag/cell

     iteration # 18     ecut=    44.10 Ry     beta=0.10
     Davidson diagonalization with overlap
     ethr =  4.23E-06,  avg # of iterations =  3.5

     negative rho (up, down):  1.092E-02 1.527E-02
 
     Adding external electric field

     Computed dipole along edir(3) : 
        Dipole               -0.2435 Ry au,         -0.6190 Debye
        Dipole field         -0.0002 Ry au
 
        Potential amp.        0.0356 Ry
        Total length         73.7482 bohr
 
 
     Adding external electric field

     Computed dipole along edir(3) : 
        Dipole               -0.2435 Ry au,         -0.6190 Debye
        Dipole field         -0.0002 Ry au
 
        Potential amp.        0.0356 Ry
        Total length         73.7482 bohr
 
 
     Magnetic moment per site:
     atom:    1    charge:    3.2147    magn:    0.9344    constr:    0.0000
     atom:    2    charge:    3.2200    magn:    0.9994    constr:    0.0000
     atom:    3    charge:    3.2200    magn:    0.9994    constr:    0.0000
     atom:    4    charge:    3.1967    magn:    0.8508    constr:    0.0000
     atom:    5    charge:    3.1967    magn:    0.8508    constr:    0.0000
     atom:    6    charge:    3.2088    magn:    0.9896    constr:    0.0000
     atom:    7    charge:    3.2044    magn:    0.9751    constr:    0.0000
     atom:    8    charge:    3.2031    magn:    0.9726    constr:    0.0000
     atom:    9    charge:    3.2031    magn:    0.9726    constr:    0.0000
     atom:   10    charge:    3.1993    magn:    0.9505    constr:    0.0000
     atom:   11    charge:    3.1993    magn:    0.9505    constr:    0.0000
     atom:   12    charge:    3.2001    magn:    0.9494    constr:    0.0000
     atom:   13    charge:    3.1997    magn:    0.9525    constr:    0.0000
     atom:   14    charge:    3.1998    magn:    0.9427    constr:    0.0000
     atom:   15    charge:    3.1998    magn:    0.9427    constr:    0.0000
     atom:   16    charge:    3.1993    magn:    0.9478    constr:    0.0000
     atom:   17    charge:    3.1993    magn:    0.9478    constr:    0.0000
     atom:   18    charge:    3.1993    magn:    0.9488    constr:    0.0000
     atom:   19    charge:    3.1991    magn:    0.9525    constr:    0.0000
[...]
    -2.4788  -2.4470  -2.4312  -2.4113  -2.4066  -2.3843  -2.3739  -2.3221
    -2.3041  -2.2761  -2.2647  -2.2334  -2.2225  -2.2154  -2.1970  -2.1709
    -2.1523  -2.1474  -2.1427  -2.1274  -2.1026  -2.0953  -2.0672  -2.0503
    -2.0376  -2.0211  -2.0060  -1.9787  -1.9604  -1.9381  -1.9219  -1.9081
    -1.9000  -1.8769  -1.8533  -1.8206  -1.8141  -1.7991  -1.7675  -1.7523
    -1.7424  -1.7147  -1.6910  -1.6606  -1.6311  -1.6092  -1.5799  -1.5699
    -1.5643  -1.5451  -1.5391  -1.5310  -1.5130  -1.4913  -1.4508  -1.4349
    -1.4267  -1.4021  -1.3872  -1.3746  -1.3311  -1.3175  -1.2277  -1.0239
    -0.8948  -0.7486  -0.4803  -0.4161  -0.2262   0.0248   0.0949   0.1901
     0.3197   0.4406   0.7041   0.9179   1.0318   1.1910   1.4778   1.6545
     1.7796   1.8034   2.1151   2.2690   2.4319   2.7550   2.8940   3.0653
     3.1368   3.2604   3.7457   3.9798   4.0104   4.1654   4.2410   4.2824
     4.4784   4.6069   4.6498   4.7370   4.8429   4.8837   5.0282   5.0966
     5.1335   5.1566   5.2943   5.4179   5.4806   5.5180   5.6050   5.6658
     5.7388   5.8139   5.8371   5.8734   5.9618   6.0975   6.1549   6.1756
     6.2469   6.2914   6.3889   6.4216   6.5216   6.5712   6.5853   6.6262
     6.6753   6.7044   6.8552   6.9155   6.9896   7.0451   7.0774   7.1373

 ------ SPIN DOWN ----------


          k = 0.0000 0.0000 0.0000 ( 62705 PWs)   bands (ev):

   -11.6251  -9.0112  -7.7264  -6.5400  -6.4979  -6.0598  -5.6615  -5.6231
    -5.5654  -5.4631  -4.9408  -4.7285  -4.6664  -4.6126  -4.5450  -4.4195
    -4.3131  -4.2950  -4.2522  -4.2191  -4.1831  -4.1400  -4.0969  -3.9294
    -3.9210  -3.8861  -3.7688  -3.7366  -3.6876  -3.5846  -3.5684  -3.5264
    -3.4991  -3.4492  -3.4302  -3.4218  -3.4150  -3.3570  -3.2471  -3.2217
    -3.2058  -3.1756  -3.1407  -3.1187  -3.0052  -2.9660  -2.9341  -2.9322
    -2.8875  -2.7942  -2.7207  -2.6688  -2.6369  -2.6331  -2.5909  -2.5798
    -2.5459  -2.5231  -2.5022  -2.4683  -2.4428  -2.4246  -2.4166  -2.3761
    -2.2927  -2.2800  -2.2594  -2.2550  -2.2461  -2.2029  -2.1993  -2.1594
    -2.1230  -2.0953  -2.0563  -2.0224  -1.9988  -1.9854  -1.9507  -1.9377
    -1.9043  -1.8756  -1.8242  -1.8232  -1.8005  -1.7752  -1.7454  -1.6997
    -1.6466  -1.6127  -1.5952  -1.5825  -1.5550  -1.5548  -1.5418  -1.5184
    -1.5044  -1.4927  -1.4689  -1.4471  -1.4352  -1.4255  -1.4238  -1.3900
    -1.3853  -1.3420  -1.3259  -1.2819  -1.2573  -1.2567  -1.2125  -1.1886
    -1.1531  -1.1456  -1.1220  -1.0898  -1.0524  -1.0205  -0.9600  -0.9580
    -0.9305  -0.9019  -0.8661  -0.8536  -0.8233  -0.7638  -0.7498  -0.7021
    -0.6695  -0.6568  -0.6334  -0.6012  -0.5896  -0.5634  -0.5436  -0.5176
    -0.4915  -0.4401  -0.4070  -0.4029  -0.3674  -0.3415  -0.3060  -0.2967
    -0.2949  -0.2768  -0.2629  -0.2533  -0.2237  -0.2150  -0.2052  -0.1652
    -0.1533  -0.1436  -0.1343  -0.1180  -0.1113  -0.0965  -0.0349  -0.0310
    -0.0254  -0.0108  -0.0036   0.0164   0.0329   0.0379   0.0554   0.1166
     0.1173   0.1555   0.1895   0.2109   0.2186   0.2227   0.2318   0.2481
     0.2544   0.2963   0.3081   0.3111   0.3219   0.3254   0.3530   0.3545
     0.3714   0.3861   0.3944   0.4218   0.4682   0.4881   0.5296   0.5980
     0.6204   0.6691   0.7554   1.0805   1.1443   1.3851   1.4302   1.4388
     1.5729   1.5915   1.6608   1.7349   1.8848   2.0934   2.1645   2.2622
     2.2936   2.3086   2.5600   2.6733   2.9197   3.0561   3.1809   3.2756
     3.3547   3.4272   3.4377   3.5590   3.7022   3.8311   3.8392   4.0972
     4.3454   4.4113   4.6229   4.6364   4.9867   5.1016   5.1497   5.3238
     5.4326   5.5723   5.7248   5.7726   5.8629   5.8857   6.0410   6.0733
     6.0942   6.1058   6.1216   6.3272   6.4366   6.5601   6.5629   6.5988
     6.6354   6.7255   6.8224   6.9327   6.9682   7.1074   7.1297   7.1750
     7.2483   7.2813   7.3012   7.3172   7.4299   7.4507   7.4852   7.5060

          k = 0.0000 0.0440 0.0000 ( 62728 PWs)   bands (ev):

   -11.6172  -8.7143  -7.8470  -7.4522  -6.6707  -5.8109  -5.4019  -5.3281
    -5.1775  -5.0473  -4.8863  -4.7673  -4.7309  -4.6150  -4.4823  -4.4128
    -4.3964  -4.3570  -4.2799  -4.1990  -4.1492  -4.0800  -3.9872  -3.9654
    -3.9325  -3.8740  -3.8348  -3.7540  -3.7409  -3.6820  -3.6203  -3.5994
    -3.5887  -3.5694  -3.5598  -3.4636  -3.4402  -3.3938  -3.3632  -3.2729
    -3.2409  -3.1923  -3.1100  -3.1006  -3.0470  -2.9874  -2.9637  -2.8983
    -2.8432  -2.7614  -2.7067  -2.6861  -2.6771  -2.6615  -2.5836  -2.5767
    -2.5676  -2.5591  -2.5174  -2.4745  -2.4595  -2.4048  -2.3851  -2.3535
    -2.3371  -2.3260  -2.2697  -2.2362  -2.2215  -2.1912  -2.1514  -2.1444
    -2.1112  -2.0437  -2.0277  -2.0035  -1.9851  -1.9642  -1.9434  -1.9089
    -1.8955  -1.8815  -1.8564  -1.8487  -1.8393  -1.8116  -1.7672  -1.7502
    -1.7159  -1.6910  -1.6720  -1.6537  -1.6264  -1.6089  -1.5851  -1.5583
    -1.5418  -1.5160  -1.4767  -1.4311  -1.4256  -1.4160  -1.3882  -1.3580
    -1.3520  -1.3370  -1.3147  -1.2888  -1.2555  -1.2271  -1.1906  -1.1672
    -1.1131  -1.0996  -1.0793  -1.0474  -1.0397  -1.0192  -1.0113  -0.9791
    -0.9583  -0.9552  -0.9097  -0.8924  -0.8660  -0.8323  -0.7965  -0.7724
    -0.7537  -0.7277  -0.7150  -0.6432  -0.6338  -0.6161  -0.5693  -0.5555
    -0.5344  -0.5206  -0.4657  -0.4278  -0.4186  -0.4154  -0.3679  -0.3623
    -0.3469  -0.3241  -0.3046  -0.2897  -0.2743  -0.2480  -0.2315  -0.2036
    -0.1825  -0.1608  -0.1486  -0.1315  -0.1082  -0.0778  -0.0250  -0.0031
     0.0212   0.0311   0.0605   0.0903   0.1007   0.1409   0.1499   0.1757
     0.1900   0.2169   0.2247   0.2637   0.2668   0.2844   0.3078   0.3155
     0.3174   0.3379   0.3682   0.3737   0.3842   0.3957   0.4175   0.4236
     0.4428   0.4574   0.4860   0.4954   0.5152   0.6969   0.7697   0.8485
     0.9423   1.0024   1.0102   1.0638   1.1216   1.3081   1.3823   1.5018
     1.5985   1.6970   1.8134   1.9228   2.1338   2.1755   2.3005   2.4019
     2.5038   2.5609   2.6084   2.7176   2.7797   2.9127   3.0355   3.0506
     3.3018   3.3722   3.4813   3.6527   3.6985   3.7363   3.8462   3.9609
     4.0226   4.1472   4.3009   4.3534   4.4168   4.6038   4.6312   4.7223
     4.9422   5.0307   5.1613   5.2828   5.3397   5.4574   5.5866   5.7774
     5.9160   6.1484   6.3520   6.4082   6.5389   6.6894   6.7272   6.7965
     6.9529   7.0512   7.1758   7.2476   7.2514   7.3925   7.4100   7.4627
     7.5271   7.5709   7.6291   7.6467   7.7199   7.7694   7.8151   7.8215

          k = 0.0538 0.0000 0.0000 ( 62649 PWs)   bands (ev):

   -11.6067  -8.5602  -7.3992  -7.2040  -6.2582  -6.2106  -6.1495  -5.7008
    -5.4839  -5.3479  -5.2636  -5.2286  -5.0119  -4.8163  -4.7891  -4.6435
    -4.5899  -4.4386  -4.4171  -4.2025  -4.0701  -4.0450  -4.0295  -3.7936
    -3.7866  -3.7534  -3.6565  -3.6339  -3.5347  -3.4465  -3.3831  -3.3763
    -3.3447  -3.3311  -3.3017  -3.2981  -3.2705  -3.2689  -3.2091  -3.1868
    -3.1590  -3.1574  -3.1062  -3.0604  -3.0235  -3.0011  -2.9608  -2.8982
    -2.8776  -2.8397  -2.8274  -2.7858  -2.7658  -2.7301  -2.6707  -2.6336
    -2.5731  -2.5195  -2.5133  -2.4480  -2.4176  -2.4170  -2.3903  -2.3860
    -2.3619  -2.3105  -2.3002  -2.2441  -2.2038  -2.1844  -2.1212  -2.0721
    -2.0689  -1.9988  -1.9964  -1.9756  -1.9394  -1.9311  -1.9054  -1.8474
    -1.8274  -1.8046  -1.7566  -1.7309  -1.7055  -1.7015  -1.6731  -1.6547
    -1.6544  -1.5969  -1.5899  -1.5786  -1.5453  -1.5436  -1.5395  -1.5166
    -1.4809  -1.4766  -1.4624  -1.4432  -1.4319  -1.4306  -1.3994  -1.3736
    -1.3714  -1.3393  -1.3333  -1.3139  -1.3055  -1.2511  -1.2464  -1.1780
    -1.1561  -1.1215  -1.1145  -1.0708  -1.0557  -1.0188  -0.9640  -0.9482
    -0.9356  -0.8711  -0.8680  -0.8596  -0.7767  -0.7710  -0.7185  -0.6881
    -0.6470  -0.6179  -0.5616  -0.5366  -0.5279  -0.5050  -0.4952  -0.4624
    -0.4493  -0.4431  -0.4178  -0.4145  -0.3884  -0.3834  -0.3278  -0.3260
    -0.2974  -0.2969  -0.2677  -0.2547  -0.2366  -0.2290  -0.1977  -0.1772
    -0.1509  -0.1273  -0.1193  -0.1049  -0.0972  -0.0807  -0.0480  -0.0373
    -0.0285   0.0052   0.0107   0.0398   0.0449   0.0856   0.0949   0.1006
     0.1359   0.1535   0.1546   0.1775   0.1856   0.2004   0.2184   0.2251
     0.2485   0.2524   0.2969   0.3096   0.3110   0.3430   0.3436   0.3651
     0.3851   0.3852   0.4002   0.4037   0.4305   0.4452   0.4483   0.4892
     0.4960   0.5119   0.5613   0.5975   0.6390   0.7334   0.7723   0.8676
     1.1214   1.1490   1.3511   1.4633   1.8112   1.8663   2.2828   2.5003
     2.5815   2.9638   3.1602   3.5041   3.5767   3.7725   3.8803   3.9324
     4.0412   4.0985   4.1473   4.1948   4.2986   4.4223   4.6195   4.6912
     4.7522   4.8728   4.9979   5.0378   5.1448   5.1571   5.2911   5.4271
     5.4380   5.5265   5.5616   5.7248   5.7858   5.9001   5.9493   6.0231
     6.1096   6.2186   6.2452   6.2464   6.4232   6.4687   6.4795   6.5272
     6.5292   6.6213   6.6952   6.7087   6.7812   6.8883   6.9465   6.9656
     7.0000   7.0168   7.0436   7.1550   7.2649   7.2805   7.3157   7.4132

          k = 0.0538 0.0440 0.0000 ( 62686 PWs)   bands (ev):

   -11.6003  -8.2691  -7.4330  -7.1259  -6.9424  -6.3809  -6.2173  -5.9824
    -5.5316  -5.3285  -5.0396  -4.9164  -4.7694  -4.6289  -4.5387  -4.4805
    -4.4314  -4.3663  -4.3233  -4.2389  -4.1280  -4.0774  -3.9808  -3.9428
    -3.8501  -3.8134  -3.7751  -3.6982  -3.6059  -3.5776  -3.5480  -3.5291
    -3.4703  -3.4553  -3.4129  -3.3655  -3.3195  -3.2689  -3.1943  -3.1258
    -3.1008  -3.0642  -3.0549  -3.0296  -3.0123  -2.9640  -2.9373  -2.8851
    -2.8633  -2.8158  -2.7999  -2.7578  -2.7251  -2.6925  -2.6633  -2.6330
    -2.6014  -2.5575  -2.4850  -2.4726  -2.4495  -2.4207  -2.3765  -2.3317
    -2.2967  -2.2647  -2.2375  -2.2189  -2.1968  -2.1832  -2.1425  -2.1284
    -2.0731  -2.0629  -2.0139  -1.9787  -1.9698  -1.9454  -1.9238  -1.8964
    -1.8606  -1.8537  -1.8069  -1.7837  -1.7627  -1.7480  -1.7301  -1.7104
    -1.6827  -1.6713  -1.6558  -1.6235  -1.5634  -1.5459  -1.5125  -1.4946
    -1.4787  -1.4504  -1.4376  -1.4085  -1.3988  -1.3883  -1.3573  -1.3415
    -1.3157  -1.3010  -1.2893  -1.2706  -1.2470  -1.2183  -1.1941  -1.1690
    -1.1504  -1.1481  -1.1161  -1.0791  -1.0565  -1.0173  -0.9864  -0.9719
    -0.9412  -0.9281  -0.9035  -0.8753  -0.8570  -0.8229  -0.7983  -0.7568
    -0.7345  -0.7160  -0.6919  -0.6688  -0.6194  -0.5906  -0.5589  -0.5253
    -0.5189  -0.4887  -0.4553  -0.4165  -0.4133  -0.3903  -0.3730  -0.3444
    -0.3237  -0.3088  -0.2891  -0.2835  -0.2528  -0.2412  -0.2333  -0.1928
    -0.1504  -0.1407  -0.1184  -0.1095  -0.0828  -0.0624  -0.0371  -0.0290
    -0.0121   0.0138   0.0310   0.0570   0.0715   0.1085   0.1211   0.1340
     0.1575   0.1708   0.1998   0.2316   0.2359   0.2630   0.3062   0.3270
     0.3376   0.3438   0.3582   0.3710   0.3872   0.3929   0.4203   0.4424
     0.4494   0.4627   0.4788   0.4949   0.5042   0.5306   0.5439   0.5505
     0.5921   0.6737   0.8297   0.9052   1.0022   1.0982   1.1872   1.2403
     1.3113   1.4110   1.5812   1.7464   1.8508   1.9401   2.2544   2.3814
     2.6318   2.6750   2.8547   2.9910   3.1063   3.3271   3.4816   3.5669
     3.7340   3.8390   3.8916   4.1297   4.1993   4.3086   4.4142   4.5983
     4.7082   4.7257   4.7844   4.9504   5.0178   5.0738   5.0964   5.1890
     5.2510   5.3055   5.4250   5.4533   5.4949   5.5813   5.6201   5.6815
     5.7697   5.8703   5.9189   6.0594   6.1952   6.2063   6.2866   6.3400
     6.4319   6.4846   6.5346   6.5789   6.6199   6.7427   6.8328   6.8840
     6.9579   6.9872   7.0342   7.1262   7.1986   7.2249   7.2763   7.4138

          k = 0.0538-0.0440 0.0000 ( 62686 PWs)   bands (ev):

   -11.6003  -8.2691  -7.4330  -7.1259  -6.9424  -6.3809  -6.2174  -5.9823
    -5.5316  -5.3286  -5.0397  -4.9164  -4.7693  -4.6289  -4.5388  -4.4805
    -4.4314  -4.3663  -4.3233  -4.2389  -4.1279  -4.0775  -3.9808  -3.9428
    -3.8501  -3.8133  -3.7752  -3.6982  -3.6059  -3.5776  -3.5480  -3.5291
    -3.4703  -3.4553  -3.4129  -3.3655  -3.3195  -3.2689  -3.1943  -3.1258
    -3.1008  -3.0642  -3.0549  -3.0296  -3.0123  -2.9640  -2.9373  -2.8850
    -2.8633  -2.8158  -2.7999  -2.7578  -2.7251  -2.6926  -2.6633  -2.6331
    -2.6014  -2.5575  -2.4850  -2.4726  -2.4495  -2.4207  -2.3764  -2.3317
    -2.2967  -2.2647  -2.2376  -2.2188  -2.1968  -2.1832  -2.1425  -2.1284
    -2.0731  -2.0629  -2.0139  -1.9787  -1.9698  -1.9454  -1.9238  -1.8964
    -1.8606  -1.8537  -1.8069  -1.7836  -1.7627  -1.7480  -1.7301  -1.7104
    -1.6827  -1.6712  -1.6558  -1.6235  -1.5634  -1.5459  -1.5125  -1.4946
    -1.4787  -1.4504  -1.4375  -1.4085  -1.3988  -1.3884  -1.3573  -1.3415
    -1.3157  -1.3011  -1.2893  -1.2706  -1.2470  -1.2183  -1.1941  -1.1690
    -1.1504  -1.1481  -1.1162  -1.0791  -1.0565  -1.0173  -0.9865  -0.9719
    -0.9412  -0.9281  -0.9035  -0.8753  -0.8570  -0.8229  -0.7983  -0.7568
    -0.7345  -0.7160  -0.6919  -0.6688  -0.6193  -0.5906  -0.5589  -0.5252
    -0.5189  -0.4887  -0.4553  -0.4166  -0.4132  -0.3903  -0.3730  -0.3444
    -0.3238  -0.3088  -0.2891  -0.2835  -0.2528  -0.2412  -0.2333  -0.1927
    -0.1504  -0.1408  -0.1184  -0.1095  -0.0827  -0.0624  -0.0371  -0.0290
    -0.0121   0.0138   0.0310   0.0570   0.0715   0.1085   0.1211   0.1340
     0.1574   0.1708   0.1998   0.2316   0.2359   0.2630   0.3063   0.3269
     0.3376   0.3439   0.3582   0.3710   0.3872   0.3929   0.4203   0.4424
     0.4495   0.4627   0.4788   0.4949   0.5042   0.5307   0.5439   0.5505
     0.5921   0.6736   0.8297   0.9052   1.0023   1.0982   1.1872   1.2403
     1.3113   1.4110   1.5811   1.7463   1.8507   1.9401   2.2544   2.3814
     2.6319   2.6750   2.8547   2.9909   3.1063   3.3271   3.4816   3.5669
     3.7341   3.8390   3.8916   4.1297   4.1993   4.3086   4.4143   4.5982
     4.7081   4.7257   4.7843   4.9504   5.0182   5.0737   5.0963   5.1890
     5.2510   5.3055   5.4251   5.4532   5.4948   5.5813   5.6202   5.6815
     5.7696   5.8704   5.9186   6.0595   6.1952   6.2063   6.2868   6.3400
     6.4319   6.4845   6.5347   6.5789   6.6198   6.7427   6.8328   6.8840
     6.9579   6.9871   7.0343   7.1263   7.1986   7.2249   7.2763   7.4137

     the Fermi energy is    -0.5875 ev

!    total energy              =   -2897.04838459 Ry
     Harris-Foulkes estimate   =   -2897.04827678 Ry
     estimated scf accuracy    <       0.00000034 Ry

     The total energy is the sum of the following terms:

     one-electron contribution =  -61720.96071059 Ry
     hartree contribution      =   31158.93413676 Ry
     xc contribution           =   -1331.35163443 Ry
     ewald contribution        =   28996.44230583 Ry
     electric field correction =       0.00002134 Ry
     smearing contrib. (-TS)   =      -0.11250349 Ry

     total magnetization       =    61.08 Bohr mag/cell
     absolute magnetization    =    67.43 Bohr mag/cell

     convergence has been achieved in  18 iterations

     Forces acting on atoms (Ry/au):


     negative rho (up, down):  6.653E-03 2.001E-02
     atom    1 type  1   force =     0.00087436   -0.00002949   -0.00097216
     atom    2 type  1   force =     0.00000385   -0.00010195   -0.00061619
     atom    3 type  1   force =     0.00001343    0.00011015   -0.00051968
     atom    4 type  1   force =     0.00026751   -0.00099980   -0.00042625
     atom    5 type  1   force =     0.00022885    0.00114677   -0.00054740
     atom    6 type  1   force =    -0.00111898   -0.00004997    0.00022566
     atom    7 type  1   force =     0.00101886   -0.00000777   -0.00128201
     atom    8 type  1   force =     0.00113545   -0.00088221   -0.00074074
     atom    9 type  1   force =     0.00112445    0.00088324   -0.00073298
     atom   10 type  1   force =     0.00059567    0.00012649   -0.00098283
     atom   11 type  1   force =     0.00057294   -0.00008249   -0.00091635
     atom   12 type  1   force =     0.00106291   -0.00003175   -0.00015581
     atom   13 type  1   force =     0.00051177    0.00000873   -0.00121850
     atom   14 type  1   force =    -0.00041319   -0.00008944   -0.00014220
     atom   15 type  1   force =    -0.00040177    0.00008470   -0.00017987
     atom   16 type  1   force =     0.00008040    0.00011927   -0.00080910
     atom   17 type  1   force =     0.00010901   -0.00010855   -0.00078608
     atom   18 type  1   force =    -0.00114609   -0.00000862   -0.00018401
     atom   19 type  1   force =    -0.00214069   -0.00001083   -0.00243617
     atom   20 type  1   force =     0.00065485   -0.00149572   -0.00561610
     atom   21 type  1   force =     0.00065483    0.00150694   -0.00561429
     atom   22 type  1   force =    -0.00181457    0.00150628   -0.00755612
     atom   23 type  1   force =    -0.00182101   -0.00150716   -0.00756011
     atom   24 type  1   force =    -0.00054872    0.00000130   -0.00678943
     atom   25 type  1   force =     0.00308099   -0.00000618   -0.01404889
     atom   26 type  1   force =     0.00345899   -0.00064813   -0.01499338
     atom   27 type  1   force =     0.00345681    0.00065761   -0.01499257
     atom   28 type  1   force =     0.00088094    0.00025863   -0.00932876
     atom   29 type  1   force =     0.00087879   -0.00026335   -0.00932731
     atom   30 type  1   force =     0.00184321    0.00000278   -0.01016521
     atom   31 type  1   force =    -0.00764424   -0.00000189    0.01318321
     atom   32 type  1   force =    -0.00775442   -0.00044827    0.01199798
     atom   33 type  1   force =    -0.00775772    0.00045052    0.01199461
     atom   34 type  1   force =     0.00346133   -0.00008388    0.02750349
     atom   35 type  1   force =     0.00345919    0.00008796    0.02750194
     atom   36 type  1   force =     0.00298867   -0.00000179    0.02681623
     atom   37 type  2   force =     0.00014335   -0.00009212    0.00041740

     Total force =     0.064367     Total SCF correction =     0.001604
 !ASE

     Writing output data file calc.save
 
     init_run     :     41.84s CPU     48.38s WALL (       1 calls)
     electrons    :  31151.57s CPU  36045.39s WALL (       9 calls)
     update_pot   :     33.90s CPU     35.85s WALL (       8 calls)
     forces       :    453.90s CPU    470.88s WALL (       9 calls)

     Called by init_run:
     wfcinit      :     26.73s CPU     32.42s WALL (       1 calls)
     potinit      :      1.71s CPU      1.85s WALL (       1 calls)

     Called by electrons:
     c_bands      :  20877.87s CPU  24638.24s WALL (     339 calls)
     sum_band     :   6945.60s CPU   7830.12s WALL (     339 calls)
     v_of_rho     :    209.51s CPU    244.88s WALL (     348 calls)
     newd         :   3131.32s CPU   3335.46s WALL (     348 calls)
     mix_rho      :     50.09s CPU     59.76s WALL (     339 calls)

     Called by c_bands:
     init_us_2    :     88.50s CPU     96.60s WALL (    6880 calls)
     cegterg      :  20390.49s CPU  24127.67s WALL (    3390 calls)

     Called by *egterg:
     h_psi        :  10542.51s CPU  13477.60s WALL (   12745 calls)
     s_psi        :   1409.33s CPU   1460.12s WALL (   12745 calls)
     g_psi        :     49.86s CPU     51.05s WALL (    9345 calls)
     cdiaghg      :   3314.23s CPU   3399.56s WALL (   12655 calls)

     Called by h_psi:
     add_vuspsi   :   1427.63s CPU   1475.70s WALL (   12745 calls)

     General routines
     calbec       :   2199.84s CPU   2259.89s WALL (   16225 calls)
     fft          :    228.07s CPU    265.56s WALL (   10869 calls)
     ffts         :      2.69s CPU      3.70s WALL (    1374 calls)
     fftw         :   5734.05s CPU   9156.85s WALL ( 4764582 calls)
     interpolate  :     27.80s CPU     37.58s WALL (    1374 calls)
     davcio       :      0.00s CPU      0.64s WALL (      10 calls)
 
     Parallel routines
     fft_scatter  :   3426.21s CPU   5384.44s WALL ( 4776825 calls)
 
     PWSCF        :     8h49m CPU       10h11m WALL

 
   This run was terminated on:  23:37:28  20Apr2018            

=------------------------------------------------------------------------------=
   JOB DONE.
=------------------------------------------------------------------------------=
