  python dir          : /home/vossj/suncat/lib/python2.7/site-packages/espresso
  espresso dir        : /home/vossj/suncat/esdld/espresso-dynpy-beef/bin
  pseudo dir          : /home/alatimer/bin/psp/esp_psp_w_gbrvRu/
  ase-espresso py git : ffa2778-git



     Program PWSCF v.5.1rc2 (svn rev. ) starts on 23Apr2017 at 21: 6: 4 

     This program is part of the open-source Quantum ESPRESSO suite
     for quantum simulation of materials; please cite
         "P. Giannozzi et al., J. Phys.:Condens. Matter 21 395502 (2009);
          URL http://www.quantum-espresso.org", 
     in publications or presentations arising from this work. More details at
     http://www.quantum-espresso.org/quote

     Parallel version (MPI), running on    16 processors
     R & G space division:  proc/nbgrp/npool/nimage =      16
     Reading input from pw.inp
     Message from routine read_cards :
     DEPRECATED: no units specified in CELL_PARAMETERS card

     Current dimensions of program PWSCF are:
     Max number of different atomic species (ntypx) = 10
     Max number of k-points (npk) =  40000
     Max angular momentum in pseudopotentials (lmaxx) =  3
     Presently no symmetry can be used with electric field


     IMPORTANT: XC functional enforced from input :
     Exchange-correlation      = RPBE ( 1  4 28  4 0)
     Any further DFT definition will be discarded
     Please, verify this is what you really want

               file Ni.UPF: wavefunction(s)  3D renormalized

     Subspace diagonalization in iterative solution of the eigenvalue problem:
     a serial algorithm will be used

 
     Parallelization info
     --------------------
     sticks:   dense  smooth     PW     G-vecs:    dense   smooth      PW
     Min         386     154     42                68872    17389    2480
     Max         387     155     43                68885    17439    2491
     Sum        6181    2479    673              1102011   278611   39737
 
     Generating pointlists ...
     new r_m :   0.4125 (alat units)  0.7795 (a.u.) for type    1
     new r_m :   0.4125 (alat units)  0.7795 (a.u.) for type    2


     bravais-lattice index     =            0
     lattice parameter (alat)  =       1.8897  a.u.
     unit-cell volume          =    7046.4111 (a.u.)^3
     number of atoms/cell      =           44
     number of atomic types    =            2
     number of electrons       =       408.00
     number of Kohn-Sham states=          304
     kinetic-energy cutoff     =      44.0992  Ry
     charge density cutoff     =     440.9919  Ry
     convergence threshold     =      7.3E-07
     mixing beta               =       0.1000
     number of iterations used =           10  plain     mixing
     Exchange-correlation      = RPBE ( 1  4 28  4 0)
     nstep                     =           50


     celldm(1)=   1.889726  celldm(2)=   0.000000  celldm(3)=   0.000000
     celldm(4)=   0.000000  celldm(5)=   0.000000  celldm(6)=   0.000000

     crystal axes: (cart. coord. in units of alat)
               a(1) = (   7.548011   0.000000   0.000000 )  
               a(2) = (  -3.774005   6.536769   0.000000 )  
               a(3) = (   0.000000   0.000000  21.162925 )  

     reciprocal axes: (cart. coord. in units 2 pi/alat)
               b(1) = (  0.132485  0.076490  0.000000 )  
               b(2) = (  0.000000  0.152981  0.000000 )  
               b(3) = (  0.000000  0.000000  0.047252 )  


     PseudoPot. # 1 for Ni read from file:
     /home/alatimer/bin/psp/esp_psp_w_gbrvRu/Ni.UPF
     MD5 check sum: 8b2449ee0060d9c33484ccd47bb60870
     Pseudo is Ultrasoft + core correction, Zval = 10.0
     Generated using "atomic" code by A. Dal Corso  v.5.0.2 svn rev. 9415
     Using radial grid of 1195 points,  6 beta functions with: 
                l(1) =   0
                l(2) =   0
                l(3) =   1
                l(4) =   1
                l(5) =   2
                l(6) =   2
     Q(r) pseudized with 0 coefficients 


     PseudoPot. # 2 for  O read from file:
     /home/alatimer/bin/psp/esp_psp_w_gbrvRu/O.UPF
     MD5 check sum: e057bbcf3229fb5d8c36c0c92f9568b4
     Pseudo is Ultrasoft + core correction, Zval =  6.0
     Generated using "atomic" code by A. Dal Corso  v.5.0.2 svn rev. 9415
     Using radial grid of 1095 points,  4 beta functions with: 
                l(1) =   0
                l(2) =   0
                l(3) =   1
                l(4) =   1
     Q(r) pseudized with 0 coefficients 


     atomic species   valence    mass     pseudopotential
        Ni1           10.00    58.69340     Ni( 1.00)
        O1             6.00    15.99940      O( 1.00)

     Starting magnetic structure 
     atomic species   magnetization
        Ni1          0.300
        O1           0.500

     No symmetry found



   Cartesian axes

     site n.     atom                  positions (alat units)
         1           Ni1 tau(   1) = (   0.0000000   0.0000000   7.5000000  )
         2           Ni1 tau(   2) = (   1.2580018   0.7263077   9.5543084  )
         3           Ni1 tau(   3) = (   0.0000000   1.4526154  11.6086168  )
         4           Ni1 tau(   4) = (   1.2580018   2.1789231  13.6629252  )
         5           Ni1 tau(   5) = (  -1.2580018   2.1789231   7.5000000  )
         6           Ni1 tau(   6) = (   0.0000000   2.9052308   9.5543084  )
         7           Ni1 tau(   7) = (  -1.2580018   3.6315385  11.6086168  )
         8           Ni1 tau(   8) = (  -0.0000000   4.3578462  13.6629252  )
         9           Ni1 tau(   9) = (  -2.5160037   4.3578462   7.5000000  )
        10           Ni1 tau(  10) = (  -1.2580018   5.0841539   9.5543084  )
        11           Ni1 tau(  11) = (  -2.5160037   5.8104616  11.6086168  )
        12           Ni1 tau(  12) = (  -1.2580018   6.5367693  13.6629252  )
        13           Ni1 tau(  13) = (   2.5160037   0.0000000   7.5000000  )
        14           Ni1 tau(  14) = (   3.7740055   0.7263077   9.5543084  )
        15           Ni1 tau(  15) = (   2.5160037   1.4526154  11.6086168  )
        16           Ni1 tau(  16) = (   3.7740055   2.1789231  13.6629252  )
        17           Ni1 tau(  17) = (   1.2580018   2.1789231   7.5000000  )
        18           Ni1 tau(  18) = (   2.5160037   2.9052308   9.5543084  )
        19           Ni1 tau(  19) = (   1.2580018   3.6315385  11.6086168  )
        20           Ni1 tau(  20) = (   2.5160037   4.3578462  13.6629252  )
        21           Ni1 tau(  21) = (  -0.0000000   4.3578462   7.5000000  )
        22           Ni1 tau(  22) = (   1.2580018   5.0841539   9.5543084  )
        23           Ni1 tau(  23) = (  -0.0000000   5.8104616  11.6086168  )
        24           Ni1 tau(  24) = (   1.2580018   6.5367693  13.6629252  )
        25           Ni1 tau(  25) = (   5.0320073   0.0000000   7.5000000  )
        26           Ni1 tau(  26) = (   6.2900092   0.7263077   9.5543084  )
        27           Ni1 tau(  27) = (   5.0320073   1.4526154  11.6086168  )
        28           Ni1 tau(  28) = (   6.2900092   2.1789231  13.6629252  )
        29           Ni1 tau(  29) = (   3.7740055   2.1789231   7.5000000  )
        30           Ni1 tau(  30) = (   5.0320073   2.9052308   9.5543084  )
        31           Ni1 tau(  31) = (   3.7740055   3.6315385  11.6086168  )
        32           Ni1 tau(  32) = (   5.0320073   4.3578462  13.6629252  )
        33           Ni1 tau(  33) = (   2.5160037   4.3578462   7.5000000  )
        34           Ni1 tau(  34) = (   3.7740055   5.0841539   9.5543084  )
        35           Ni1 tau(  35) = (   2.5160037   5.8104616  11.6086168  )
        36           Ni1 tau(  36) = (   3.7740055   6.5367693  13.6629252  )
        37           O1  tau(  37) = (   2.4935804   5.8277866  14.8463543  )
        38           O1  tau(  38) = (   0.0203265   5.7554212  14.8463543  )
        39           O1  tau(  39) = (   2.5363302   1.3975750  14.8463543  )
        40           O1  tau(  40) = (   5.0523338   1.3975750  14.8463543  )
        41           O1  tau(  41) = (   0.0203265   1.3975750  14.8463543  )
        42           O1  tau(  42) = (  -2.4956772   5.7554212  14.8463543  )
        43           O1  tau(  43) = (   3.7943320   3.5764981  14.8463543  )
        44           O1  tau(  44) = (  -1.2376753   3.5764981  14.8463543  )

     number of k points=    10  Fermi-Dirac smearing, width (Ry)=  0.0073
                       cart. coord. in units 2pi/alat
        k(    1) = (   0.0000000   0.0000000   0.0000000), wk =   0.1111111
        k(    2) = (   0.0000000   0.0509936   0.0000000), wk =   0.2222222
        k(    3) = (   0.0441617   0.0254968   0.0000000), wk =   0.2222222
        k(    4) = (   0.0441617   0.0764904   0.0000000), wk =   0.2222222
        k(    5) = (   0.0441617  -0.0254968   0.0000000), wk =   0.2222222
        k(    6) = (   0.0000000   0.0000000   0.0000000), wk =   0.1111111
        k(    7) = (   0.0000000   0.0509936   0.0000000), wk =   0.2222222
        k(    8) = (   0.0441617   0.0254968   0.0000000), wk =   0.2222222
        k(    9) = (   0.0441617   0.0764904   0.0000000), wk =   0.2222222
        k(   10) = (   0.0441617  -0.0254968   0.0000000), wk =   0.2222222

     Dense  grid:  1102011 G-vectors     FFT dimensions: (  96,  96, 270)

     Smooth grid:   278611 G-vectors     FFT dimensions: (  64,  64, 180)

     Largest allocated arrays     est. size (Mb)     dimensions
        Kohn-Sham Wavefunctions        10.13 Mb     (    2183,  304)
        NL pseudopotentials            23.72 Mb     (    2183,  712)
        Each V/rho on FFT grid          4.78 Mb     (  156672,   2)
        Each G-vector array             0.53 Mb     (   68874)
        G-vector shells                 0.19 Mb     (   24563)
     Largest temporary arrays     est. size (Mb)     dimensions
        Auxiliary wavefunctions        40.50 Mb     (    2183, 1216)
        Each subspace H/S matrix       22.56 Mb     (    1216, 1216)
        Each <psi_i|beta_j> matrix      3.30 Mb     (     712,  304)
        Arrays for rho mixing          23.91 Mb     (  156672,   10)

     Check: negative/imaginary core charge=   -0.000010    0.000000

     Initial potential from superposition of free atoms
     Check: negative starting charge=(component1):   -0.000465
     Check: negative starting charge=(component2):   -0.000216

     starting charge  407.99095, renormalised to  408.00000

     negative rho (up, down):  4.652E-04 2.163E-04
 
     Adding external electric field

     Computed dipole along edir(3) : 
        Dipole               -0.0085 Ry au,         -0.0216 Debye
        Dipole field         -0.0000 Ry au
 
        Potential amp.        0.0012 Ry
        Total length         38.9923 bohr
 
 
     Adding external electric field

     Computed dipole along edir(3) : 
        Dipole               -0.0085 Ry au,         -0.0216 Debye
        Dipole field         -0.0000 Ry au
 
        Potential amp.        0.0012 Ry
        Total length         38.9923 bohr
 
     Starting wfc are  356 randomized atomic wfcs

     total cpu time spent up to now is       34.4 secs

     Self-consistent Calculation

     iteration #  1     ecut=    44.10 Ry     beta=0.10
     Davidson diagonalization with overlap
     ethr =  1.00E-02,  avg # of iterations =  6.6

     negative rho (up, down):  4.323E-04 1.969E-04
 
     Adding external electric field

     Computed dipole along edir(3) : 
        Dipole               -0.6165 Ry au,         -1.5669 Debye
        Dipole field         -0.0011 Ry au
 
        Potential amp.        0.0857 Ry
        Total length         38.9923 bohr
 
 
     Adding external electric field

     Computed dipole along edir(3) : 
        Dipole               -0.6165 Ry au,         -1.5669 Debye
        Dipole field         -0.0011 Ry au
 
        Potential amp.        0.0857 Ry
        Total length         38.9923 bohr
 
 
     Magnetic moment per site:
     atom:    1    charge:    3.9488    magn:    1.1263    constr:    0.0000
     atom:    2    charge:    3.9691    magn:    1.1099    constr:    0.0000
     atom:    3    charge:    3.9704    magn:    1.1093    constr:    0.0000
     atom:    4    charge:    3.9394    magn:    1.1455    constr:    0.0000
     atom:    5    charge:    3.9489    magn:    1.1261    constr:    0.0000
     atom:    6    charge:    3.9688    magn:    1.1102    constr:    0.0000
     atom:    7    charge:    3.9707    magn:    1.1090    constr:    0.0000
     atom:    8    charge:    3.9381    magn:    1.1471    constr:    0.0000
     atom:    9    charge:    3.9488    magn:    1.1263    constr:    0.0000
     atom:   10    charge:    3.9691    magn:    1.1099    constr:    0.0000
     atom:   11    charge:    3.9704    magn:    1.1087    constr:    0.0000
     atom:   12    charge:    3.9346    magn:    1.1552    constr:    0.0000
     atom:   13    charge:    3.9488    magn:    1.1263    constr:    0.0000
     atom:   14    charge:    3.9687    magn:    1.1107    constr:    0.0000
     atom:   15    charge:    3.9705    magn:    1.1092    constr:    0.0000
     atom:   16    charge:    3.9361    magn:    1.1546    constr:    0.0000
     atom:   17    charge:    3.9488    magn:    1.1263    constr:    0.0000
     atom:   18    charge:    3.9688    magn:    1.1101    constr:    0.0000
     atom:   19    charge:    3.9710    magn:    1.1074    constr:    0.0000
     atom:   20    charge:    3.9397    magn:    1.1451    constr:    0.0000
     atom:   21    charge:    3.9488    magn:    1.1262    constr:    0.0000
     atom:   22    charge:    3.9688    magn:    1.1101    constr:    0.0000
     atom:   23    charge:    3.9706    magn:    1.1091    constr:    0.0000
     atom:   24    charge:    3.9357    magn:    1.1556    constr:    0.0000
     atom:   25    charge:    3.9489    magn:    1.1261    constr:    0.0000
     atom:   26    charge:    3.9687    magn:    1.1107    constr:    0.0000
     atom:   27    charge:    3.9700    magn:    1.1093    constr:    0.0000
     atom:   28    charge:    3.9362    magn:    1.1546    constr:    0.0000
     atom:   29    charge:    3.9488    magn:    1.1262    constr:    0.0000
     atom:   30    charge:    3.9687    magn:    1.1106    constr:    0.0000
     atom:   31    charge:    3.9706    magn:    1.1091    constr:    0.0000
     atom:   32    charge:    3.9348    magn:    1.1550    constr:    0.0000
     atom:   33    charge:    3.9488    magn:    1.1262    constr:    0.0000
     atom:   34    charge:    3.9690    magn:    1.1100    constr:    0.0000
     atom:   35    charge:    3.9705    magn:    1.1092    constr:    0.0000
     atom:   36    charge:    3.9346    magn:    1.1552    constr:    0.0000
     atom:   37    charge:    2.0196    magn:    0.9472    constr:    0.0000
     atom:   38    charge:    2.0195    magn:    0.9472    constr:    0.0000
     atom:   39    charge:    2.0194    magn:    0.9470    constr:    0.0000
     atom:   40    charge:    2.0209    magn:    0.9475    constr:    0.0000
     atom:   41    charge:    2.0194    magn:    0.9471    constr:    0.0000
     atom:   42    charge:    2.0205    magn:    0.9475    constr:    0.0000
     atom:   43    charge:    2.0194    magn:    0.9469    constr:    0.0000
     atom:   44    charge:    2.0195    magn:    0.9471    constr:    0.0000

     total cpu time spent up to now is      172.0 secs

     total energy              =   -3888.44059295 Ry
     Harris-Foulkes estimate   =   -3889.11207252 Ry
     estimated scf accuracy    <       9.74543726 Ry

     total magnetization       =    46.76 Bohr mag/cell
     absolute magnetization    =    47.13 Bohr mag/cell

     iteration #  2     ecut=    44.10 Ry     beta=0.10
     Davidson diagonalization with overlap
     ethr =  2.39E-03,  avg # of iterations =  2.7

     negative rho (up, down):  4.322E-04 2.332E-04
 
     Adding external electric field

     Computed dipole along edir(3) : 
        Dipole               -0.5963 Ry au,         -1.5156 Debye
        Dipole field         -0.0011 Ry au
 
        Potential amp.        0.0829 Ry
        Total length         38.9923 bohr
 
 
     Adding external electric field

     Computed dipole along edir(3) : 
        Dipole               -0.5963 Ry au,         -1.5156 Debye
        Dipole field         -0.0011 Ry au
 
        Potential amp.        0.0829 Ry
        Total length         38.9923 bohr
 
 
     Magnetic moment per site:
     atom:    1    charge:    3.9632    magn:    1.1023    constr:    0.0000
     atom:    2    charge:    3.9572    magn:    1.1057    constr:    0.0000
     atom:    3    charge:    3.9578    magn:    1.1060    constr:    0.0000
     atom:    4    charge:    3.9507    magn:    1.1268    constr:    0.0000
     atom:    5    charge:    3.9633    magn:    1.1021    constr:    0.0000
     atom:    6    charge:    3.9571    magn:    1.1059    constr:    0.0000
     atom:    7    charge:    3.9580    magn:    1.1058    constr:    0.0000
     atom:    8    charge:    3.9495    magn:    1.1285    constr:    0.0000
     atom:    9    charge:    3.9632    magn:    1.1024    constr:    0.0000
     atom:   10    charge:    3.9572    magn:    1.1058    constr:    0.0000
     atom:   11    charge:    3.9577    magn:    1.1051    constr:    0.0000
     atom:   12    charge:    3.9451    magn:    1.1386    constr:    0.0000
     atom:   13    charge:    3.9632    magn:    1.1023    constr:    0.0000
     atom:   14    charge:    3.9572    magn:    1.1063    constr:    0.0000
     atom:   15    charge:    3.9578    magn:    1.1060    constr:    0.0000
     atom:   16    charge:    3.9458    magn:    1.1388    constr:    0.0000
     atom:   17    charge:    3.9632    magn:    1.1023    constr:    0.0000
     atom:   18    charge:    3.9571    magn:    1.1058    constr:    0.0000
     atom:   19    charge:    3.9566    magn:    1.1050    constr:    0.0000
     atom:   20    charge:    3.9509    magn:    1.1264    constr:    0.0000
     atom:   21    charge:    3.9632    magn:    1.1023    constr:    0.0000
     atom:   22    charge:    3.9571    magn:    1.1058    constr:    0.0000
     atom:   23    charge:    3.9580    magn:    1.1058    constr:    0.0000
     atom:   24    charge:    3.9454    magn:    1.1399    constr:    0.0000
     atom:   25    charge:    3.9633    magn:    1.1021    constr:    0.0000
     atom:   26    charge:    3.9572    magn:    1.1063    constr:    0.0000
     atom:   27    charge:    3.9578    magn:    1.1053    constr:    0.0000
     atom:   28    charge:    3.9458    magn:    1.1388    constr:    0.0000
     atom:   29    charge:    3.9632    magn:    1.1022    constr:    0.0000
     atom:   30    charge:    3.9572    magn:    1.1063    constr:    0.0000
     atom:   31    charge:    3.9578    magn:    1.1059    constr:    0.0000
     atom:   32    charge:    3.9452    magn:    1.1385    constr:    0.0000
     atom:   33    charge:    3.9632    magn:    1.1023    constr:    0.0000
     atom:   34    charge:    3.9572    magn:    1.1058    constr:    0.0000
     atom:   35    charge:    3.9579    magn:    1.1059    constr:    0.0000
     atom:   36    charge:    3.9451    magn:    1.1386    constr:    0.0000
     atom:   37    charge:    2.0246    magn:    0.9334    constr:    0.0000
     atom:   38    charge:    2.0245    magn:    0.9334    constr:    0.0000
     atom:   39    charge:    2.0245    magn:    0.9332    constr:    0.0000
     atom:   40    charge:    2.0256    magn:    0.9343    constr:    0.0000
     atom:   41    charge:    2.0244    magn:    0.9334    constr:    0.0000
     atom:   42    charge:    2.0252    magn:    0.9342    constr:    0.0000
     atom:   43    charge:    2.0245    magn:    0.9330    constr:    0.0000
     atom:   44    charge:    2.0246    magn:    0.9333    constr:    0.0000

     total cpu time spent up to now is      254.9 secs

     total energy              =   -3888.42511931 Ry
     Harris-Foulkes estimate   =   -3890.66741401 Ry
     estimated scf accuracy    <      51.28743361 Ry

     total magnetization       =    50.08 Bohr mag/cell
     absolute magnetization    =    50.97 Bohr mag/cell

     iteration #  3     ecut=    44.10 Ry     beta=0.10
     Davidson diagonalization with overlap
     ethr =  2.39E-03,  avg # of iterations =  1.1

     negative rho (up, down):  4.391E-04 2.886E-04
 
     Adding external electric field

     Computed dipole along edir(3) : 
        Dipole               -1.2902 Ry au,         -3.2793 Debye
        Dipole field         -0.0023 Ry au
 
        Potential amp.        0.1794 Ry
        Total length         38.9923 bohr
 
 
     Adding external electric field

     Computed dipole along edir(3) : 
        Dipole               -1.2902 Ry au,         -3.2793 Debye
        Dipole field         -0.0023 Ry au
 
        Potential amp.        0.1794 Ry
        Total length         38.9923 bohr
 
 
     Magnetic moment per site:
     atom:    1    charge:    3.9626    magn:    1.0929    constr:    0.0000
     atom:    2    charge:    3.9563    magn:    1.0958    constr:    0.0000
     atom:    3    charge:    3.9592    magn:    1.0941    constr:    0.0000
     atom:    4    charge:    3.9536    magn:    1.1162    constr:    0.0000
     atom:    5    charge:    3.9626    magn:    1.0928    constr:    0.0000
     atom:    6    charge:    3.9562    magn:    1.0959    constr:    0.0000
     atom:    7    charge:    3.9593    magn:    1.0938    constr:    0.0000
     atom:    8    charge:    3.9526    magn:    1.1178    constr:    0.0000
     atom:    9    charge:    3.9626    magn:    1.0929    constr:    0.0000
     atom:   10    charge:    3.9563    magn:    1.0958    constr:    0.0000
     atom:   11    charge:    3.9591    magn:    1.0930    constr:    0.0000
     atom:   12    charge:    3.9487    magn:    1.1284    constr:    0.0000
     atom:   13    charge:    3.9626    magn:    1.0929    constr:    0.0000
     atom:   14    charge:    3.9562    magn:    1.0966    constr:    0.0000
     atom:   15    charge:    3.9592    magn:    1.0940    constr:    0.0000
     atom:   16    charge:    3.9492    magn:    1.1288    constr:    0.0000
     atom:   17    charge:    3.9626    magn:    1.0928    constr:    0.0000
     atom:   18    charge:    3.9562    magn:    1.0959    constr:    0.0000
     atom:   19    charge:    3.9581    magn:    1.0927    constr:    0.0000
     atom:   20    charge:    3.9538    magn:    1.1158    constr:    0.0000
     atom:   21    charge:    3.9626    magn:    1.0928    constr:    0.0000
     atom:   22    charge:    3.9562    magn:    1.0959    constr:    0.0000
     atom:   23    charge:    3.9593    magn:    1.0938    constr:    0.0000
     atom:   24    charge:    3.9490    magn:    1.1298    constr:    0.0000
     atom:   25    charge:    3.9626    magn:    1.0927    constr:    0.0000
     atom:   26    charge:    3.9563    magn:    1.0965    constr:    0.0000
     atom:   27    charge:    3.9592    magn:    1.0932    constr:    0.0000
     atom:   28    charge:    3.9493    magn:    1.1288    constr:    0.0000
     atom:   29    charge:    3.9626    magn:    1.0928    constr:    0.0000
     atom:   30    charge:    3.9563    magn:    1.0965    constr:    0.0000
     atom:   31    charge:    3.9591    magn:    1.0940    constr:    0.0000
     atom:   32    charge:    3.9487    magn:    1.1284    constr:    0.0000
     atom:   33    charge:    3.9626    magn:    1.0928    constr:    0.0000
     atom:   34    charge:    3.9563    magn:    1.0959    constr:    0.0000
     atom:   35    charge:    3.9592    magn:    1.0940    constr:    0.0000
     atom:   36    charge:    3.9486    magn:    1.1284    constr:    0.0000
     atom:   37    charge:    2.0266    magn:    0.9238    constr:    0.0000
     atom:   38    charge:    2.0265    magn:    0.9238    constr:    0.0000
     atom:   39    charge:    2.0265    magn:    0.9236    constr:    0.0000
     atom:   40    charge:    2.0277    magn:    0.9248    constr:    0.0000
     atom:   41    charge:    2.0264    magn:    0.9238    constr:    0.0000
     atom:   42    charge:    2.0272    magn:    0.9248    constr:    0.0000
     atom:   43    charge:    2.0265    magn:    0.9233    constr:    0.0000
     atom:   44    charge:    2.0266    magn:    0.9236    constr:    0.0000

     total cpu time spent up to now is      329.8 secs

     total energy              =   -3889.30368922 Ry
     Harris-Foulkes estimate   =   -3889.48247103 Ry
     estimated scf accuracy    <       9.47297889 Ry

     total magnetization       =    47.08 Bohr mag/cell
     absolute magnetization    =    47.67 Bohr mag/cell

     iteration #  4     ecut=    44.10 Ry     beta=0.10
     Davidson diagonalization with overlap
     ethr =  2.32E-03,  avg # of iterations =  1.0

     negative rho (up, down):  4.354E-04 2.282E-04
 
     Adding external electric field

     Computed dipole along edir(3) : 
        Dipole               -1.3255 Ry au,         -3.3690 Debye
        Dipole field         -0.0024 Ry au
 
        Potential amp.        0.1843 Ry
        Total length         38.9923 bohr
 
 
     Adding external electric field

     Computed dipole along edir(3) : 
        Dipole               -1.3255 Ry au,         -3.3690 Debye
        Dipole field         -0.0024 Ry au
 
        Potential amp.        0.1843 Ry
        Total length         38.9923 bohr
 
 
     Magnetic moment per site:
     atom:    1    charge:    3.9794    magn:    0.9802    constr:    0.0000
     atom:    2    charge:    3.9616    magn:    0.9875    constr:    0.0000
     atom:    3    charge:    3.9603    magn:    0.9891    constr:    0.0000
     atom:    4    charge:    3.9567    magn:    1.0342    constr:    0.0000
     atom:    5    charge:    3.9789    magn:    0.9805    constr:    0.0000
     atom:    6    charge:    3.9618    magn:    0.9872    constr:    0.0000
     atom:    7    charge:    3.9606    magn:    0.9884    constr:    0.0000
     atom:    8    charge:    3.9583    magn:    1.0338    constr:    0.0000
     atom:    9    charge:    3.9795    magn:    0.9802    constr:    0.0000
     atom:   10    charge:    3.9616    magn:    0.9874    constr:    0.0000
     atom:   11    charge:    3.9609    magn:    0.9862    constr:    0.0000
     atom:   12    charge:    3.9614    magn:    1.0468    constr:    0.0000
     atom:   13    charge:    3.9795    magn:    0.9802    constr:    0.0000
     atom:   14    charge:    3.9613    magn:    0.9891    constr:    0.0000
     atom:   15    charge:    3.9604    magn:    0.9889    constr:    0.0000
     atom:   16    charge:    3.9616    magn:    1.0484    constr:    0.0000
     atom:   17    charge:    3.9795    magn:    0.9801    constr:    0.0000
     atom:   18    charge:    3.9618    magn:    0.9871    constr:    0.0000
     atom:   19    charge:    3.9627    magn:    0.9828    constr:    0.0000
     atom:   20    charge:    3.9563    magn:    1.0341    constr:    0.0000
     atom:   21    charge:    3.9794    magn:    0.9801    constr:    0.0000
     atom:   22    charge:    3.9619    magn:    0.9870    constr:    0.0000
     atom:   23    charge:    3.9607    magn:    0.9884    constr:    0.0000
     atom:   24    charge:    3.9623    magn:    1.0491    constr:    0.0000
     atom:   25    charge:    3.9788    magn:    0.9806    constr:    0.0000
     atom:   26    charge:    3.9614    magn:    0.9890    constr:    0.0000
     atom:   27    charge:    3.9613    magn:    0.9866    constr:    0.0000
     atom:   28    charge:    3.9617    magn:    1.0485    constr:    0.0000
     atom:   29    charge:    3.9791    magn:    0.9804    constr:    0.0000
     atom:   30    charge:    3.9614    magn:    0.9889    constr:    0.0000
     atom:   31    charge:    3.9605    magn:    0.9887    constr:    0.0000
     atom:   32    charge:    3.9612    magn:    1.0469    constr:    0.0000
     atom:   33    charge:    3.9794    magn:    0.9802    constr:    0.0000
     atom:   34    charge:    3.9615    magn:    0.9876    constr:    0.0000
     atom:   35    charge:    3.9605    magn:    0.9888    constr:    0.0000
     atom:   36    charge:    3.9612    magn:    1.0469    constr:    0.0000
     atom:   37    charge:    2.0417    magn:    0.8331    constr:    0.0000
     atom:   38    charge:    2.0416    magn:    0.8332    constr:    0.0000
     atom:   39    charge:    2.0415    magn:    0.8328    constr:    0.0000
     atom:   40    charge:    2.0435    magn:    0.8359    constr:    0.0000
     atom:   41    charge:    2.0414    magn:    0.8331    constr:    0.0000
     atom:   42    charge:    2.0427    magn:    0.8359    constr:    0.0000
     atom:   43    charge:    2.0415    magn:    0.8321    constr:    0.0000
     atom:   44    charge:    2.0417    magn:    0.8329    constr:    0.0000

     total cpu time spent up to now is      404.0 secs

     total energy              =   -3889.90705535 Ry
     Harris-Foulkes estimate   =   -3889.76219726 Ry
     estimated scf accuracy    <      43.37106308 Ry

     total magnetization       =    46.94 Bohr mag/cell
     absolute magnetization    =    47.19 Bohr mag/cell

     iteration #  5     ecut=    44.10 Ry     beta=0.10
     Davidson diagonalization with overlap
     ethr =  2.32E-03,  avg # of iterations =  1.0

     negative rho (up, down):  4.365E-04 2.293E-04
 
     Adding external electric field

     Computed dipole along edir(3) : 
        Dipole               -1.3935 Ry au,         -3.5420 Debye
        Dipole field         -0.0025 Ry au
 
        Potential amp.        0.1938 Ry
        Total length         38.9923 bohr
 
 
     Adding external electric field

     Computed dipole along edir(3) : 
        Dipole               -1.3935 Ry au,         -3.5420 Debye
        Dipole field         -0.0025 Ry au
 
        Potential amp.        0.1938 Ry
        Total length         38.9923 bohr
 
 
     Magnetic moment per site:
     atom:    1    charge:    3.9809    magn:    0.9194    constr:    0.0000
     atom:    2    charge:    3.9615    magn:    0.9278    constr:    0.0000
     atom:    3    charge:    3.9652    magn:    0.9255    constr:    0.0000
     atom:    4    charge:    3.9695    magn:    0.9777    constr:    0.0000
     atom:    5    charge:    3.9814    magn:    0.9189    constr:    0.0000
     atom:    6    charge:    3.9612    magn:    0.9278    constr:    0.0000
     atom:    7    charge:    3.9648    magn:    0.9253    constr:    0.0000
     atom:    8    charge:    3.9672    magn:    0.9800    constr:    0.0000
     atom:    9    charge:    3.9807    magn:    0.9196    constr:    0.0000
     atom:   10    charge:    3.9613    magn:    0.9280    constr:    0.0000
     atom:   11    charge:    3.9632    magn:    0.9242    constr:    0.0000
     atom:   12    charge:    3.9586    magn:    1.0060    constr:    0.0000
     atom:   13    charge:    3.9808    magn:    0.9195    constr:    0.0000
     atom:   14    charge:    3.9613    magn:    0.9298    constr:    0.0000
     atom:   15    charge:    3.9652    magn:    0.9253    constr:    0.0000
     atom:   16    charge:    3.9594    magn:    1.0079    constr:    0.0000
     atom:   17    charge:    3.9810    magn:    0.9193    constr:    0.0000
     atom:   18    charge:    3.9613    magn:    0.9277    constr:    0.0000
     atom:   19    charge:    3.9650    magn:    0.9192    constr:    0.0000
     atom:   20    charge:    3.9696    magn:    0.9773    constr:    0.0000
     atom:   21    charge:    3.9810    magn:    0.9192    constr:    0.0000
     atom:   22    charge:    3.9612    magn:    0.9277    constr:    0.0000
     atom:   23    charge:    3.9646    magn:    0.9255    constr:    0.0000
     atom:   24    charge:    3.9585    magn:    1.0097    constr:    0.0000
     atom:   25    charge:    3.9815    magn:    0.9188    constr:    0.0000
     atom:   26    charge:    3.9614    magn:    0.9297    constr:    0.0000
     atom:   27    charge:    3.9632    magn:    0.9251    constr:    0.0000
     atom:   28    charge:    3.9593    magn:    1.0082    constr:    0.0000
     atom:   29    charge:    3.9812    magn:    0.9191    constr:    0.0000
     atom:   30    charge:    3.9613    magn:    0.9297    constr:    0.0000
     atom:   31    charge:    3.9652    magn:    0.9252    constr:    0.0000
     atom:   32    charge:    3.9587    magn:    1.0058    constr:    0.0000
     atom:   33    charge:    3.9811    magn:    0.9192    constr:    0.0000
     atom:   34    charge:    3.9614    magn:    0.9280    constr:    0.0000
     atom:   35    charge:    3.9651    magn:    0.9254    constr:    0.0000
     atom:   36    charge:    3.9589    magn:    1.0056    constr:    0.0000
     atom:   37    charge:    2.0491    magn:    0.7799    constr:    0.0000
     atom:   38    charge:    2.0490    magn:    0.7800    constr:    0.0000
     atom:   39    charge:    2.0489    magn:    0.7794    constr:    0.0000
     atom:   40    charge:    2.0507    magn:    0.7839    constr:    0.0000
     atom:   41    charge:    2.0488    magn:    0.7798    constr:    0.0000
     atom:   42    charge:    2.0500    magn:    0.7837    constr:    0.0000
     atom:   43    charge:    2.0489    magn:    0.7786    constr:    0.0000
     atom:   44    charge:    2.0491    magn:    0.7796    constr:    0.0000

     total cpu time spent up to now is      478.0 secs

     total energy              =   -3890.49934906 Ry
     Harris-Foulkes estimate   =   -3890.20078734 Ry
     estimated scf accuracy    <       2.05186228 Ry

     total magnetization       =    45.67 Bohr mag/cell
     absolute magnetization    =    46.38 Bohr mag/cell

     iteration #  6     ecut=    44.10 Ry     beta=0.10
     Davidson diagonalization with overlap
     ethr =  5.03E-04,  avg # of iterations =  6.3

     negative rho (up, down):  4.464E-04 2.616E-04
 
     Adding external electric field

     Computed dipole along edir(3) : 
        Dipole               -1.4582 Ry au,         -3.7063 Debye
        Dipole field         -0.0026 Ry au
 
        Potential amp.        0.2028 Ry
        Total length         38.9923 bohr
 
 
     Adding external electric field

     Computed dipole along edir(3) : 
        Dipole               -1.4582 Ry au,         -3.7063 Debye
        Dipole field         -0.0026 Ry au
 
        Potential amp.        0.2028 Ry
        Total length         38.9923 bohr
 
 
     Magnetic moment per site:
     atom:    1    charge:    3.9758    magn:    0.8343    constr:    0.0000
     atom:    2    charge:    3.9648    magn:    0.8387    constr:    0.0000
     atom:    3    charge:    3.9647    magn:    0.8385    constr:    0.0000
     atom:    4    charge:    3.9681    magn:    0.9089    constr:    0.0000
     atom:    5    charge:    3.9752    magn:    0.8346    constr:    0.0000
     atom:    6    charge:    3.9643    magn:    0.8387    constr:    0.0000
     atom:    7    charge:    3.9660    magn:    0.8367    constr:    0.0000
     atom:    8    charge:    3.9667    magn:    0.9099    constr:    0.0000
     atom:    9    charge:    3.9762    magn:    0.8340    constr:    0.0000
     atom:   10    charge:    3.9655    magn:    0.8380    constr:    0.0000
     atom:   11    charge:    3.9676    magn:    0.8330    constr:    0.0000
     atom:   12    charge:    3.9632    magn:    0.9394    constr:    0.0000
     atom:   13    charge:    3.9761    magn:    0.8340    constr:    0.0000
     atom:   14    charge:    3.9651    magn:    0.8409    constr:    0.0000
     atom:   15    charge:    3.9647    magn:    0.8382    constr:    0.0000
     atom:   16    charge:    3.9625    magn:    0.9436    constr:    0.0000
     atom:   17    charge:    3.9760    magn:    0.8341    constr:    0.0000
     atom:   18    charge:    3.9642    magn:    0.8387    constr:    0.0000
     atom:   19    charge:    3.9594    magn:    0.8339    constr:    0.0000
     atom:   20    charge:    3.9684    magn:    0.9082    constr:    0.0000
     atom:   21    charge:    3.9763    magn:    0.8338    constr:    0.0000
     atom:   22    charge:    3.9645    magn:    0.8384    constr:    0.0000
     atom:   23    charge:    3.9664    magn:    0.8365    constr:    0.0000
     atom:   24    charge:    3.9622    magn:    0.9452    constr:    0.0000
     atom:   25    charge:    3.9750    magn:    0.8347    constr:    0.0000
     atom:   26    charge:    3.9648    magn:    0.8411    constr:    0.0000
     atom:   27    charge:    3.9678    magn:    0.8341    constr:    0.0000
     atom:   28    charge:    3.9629    magn:    0.9436    constr:    0.0000
     atom:   29    charge:    3.9753    magn:    0.8346    constr:    0.0000
     atom:   30    charge:    3.9651    magn:    0.8407    constr:    0.0000
     atom:   31    charge:    3.9647    magn:    0.8380    constr:    0.0000
     atom:   32    charge:    3.9629    magn:    0.9394    constr:    0.0000
     atom:   33    charge:    3.9759    magn:    0.8342    constr:    0.0000
     atom:   34    charge:    3.9649    magn:    0.8388    constr:    0.0000
     atom:   35    charge:    3.9651    magn:    0.8378    constr:    0.0000
     atom:   36    charge:    3.9625    magn:    0.9395    constr:    0.0000
     atom:   37    charge:    2.0574    magn:    0.7014    constr:    0.0000
     atom:   38    charge:    2.0573    magn:    0.7016    constr:    0.0000
     atom:   39    charge:    2.0572    magn:    0.7007    constr:    0.0000
     atom:   40    charge:    2.0588    magn:    0.7076    constr:    0.0000
     atom:   41    charge:    2.0571    magn:    0.7013    constr:    0.0000
     atom:   42    charge:    2.0578    magn:    0.7075    constr:    0.0000
     atom:   43    charge:    2.0573    magn:    0.6995    constr:    0.0000
     atom:   44    charge:    2.0574    magn:    0.7010    constr:    0.0000

     total cpu time spent up to now is      578.4 secs

     total energy              =   -3890.93654703 Ry
     Harris-Foulkes estimate   =   -3890.54273705 Ry
     estimated scf accuracy    <       1.42846681 Ry

     total magnetization       =    44.33 Bohr mag/cell
     absolute magnetization    =    45.40 Bohr mag/cell

     iteration #  7     ecut=    44.10 Ry     beta=0.10
     Davidson diagonalization with overlap
     ethr =  3.50E-04,  avg # of iterations =  5.3

     negative rho (up, down):  5.292E-04 4.758E-04
 
     Adding external electric field

     Computed dipole along edir(3) : 
        Dipole               -1.3533 Ry au,         -3.4398 Debye
        Dipole field         -0.0024 Ry au
 
        Potential amp.        0.1882 Ry
        Total length         38.9923 bohr
 
 
     Adding external electric field

     Computed dipole along edir(3) : 
        Dipole               -1.3533 Ry au,         -3.4398 Debye
        Dipole field         -0.0024 Ry au
 
        Potential amp.        0.1882 Ry
        Total length         38.9923 bohr
 
 
     Magnetic moment per site:
     atom:    1    charge:    3.9687    magn:    0.6838    constr:    0.0000
     atom:    2    charge:    3.9647    magn:    0.6882    constr:    0.0000
     atom:    3    charge:    3.9699    magn:    0.6820    constr:    0.0000
     atom:    4    charge:    3.9708    magn:    0.7833    constr:    0.0000
     atom:    5    charge:    3.9692    magn:    0.6835    constr:    0.0000
     atom:    6    charge:    3.9684    magn:    0.6846    constr:    0.0000
     atom:    7    charge:    3.9681    magn:    0.6821    constr:    0.0000
     atom:    8    charge:    3.9686    magn:    0.7837    constr:    0.0000
     atom:    9    charge:    3.9674    magn:    0.6850    constr:    0.0000
     atom:   10    charge:    3.9622    magn:    0.6902    constr:    0.0000
     atom:   11    charge:    3.9649    magn:    0.6817    constr:    0.0000
     atom:   12    charge:    3.9677    magn:    0.8238    constr:    0.0000
     atom:   13    charge:    3.9674    magn:    0.6848    constr:    0.0000
     atom:   14    charge:    3.9635    magn:    0.6925    constr:    0.0000
     atom:   15    charge:    3.9698    magn:    0.6817    constr:    0.0000
     atom:   16    charge:    3.9682    magn:    0.8296    constr:    0.0000
     atom:   17    charge:    3.9699    magn:    0.6831    constr:    0.0000
     atom:   18    charge:    3.9693    magn:    0.6837    constr:    0.0000
     atom:   19    charge:    3.9744    magn:    0.6678    constr:    0.0000
     atom:   20    charge:    3.9705    magn:    0.7827    constr:    0.0000
     atom:   21    charge:    3.9688    magn:    0.6838    constr:    0.0000
     atom:   22    charge:    3.9682    magn:    0.6844    constr:    0.0000
     atom:   23    charge:    3.9675    magn:    0.6827    constr:    0.0000
     atom:   24    charge:    3.9679    magn:    0.8312    constr:    0.0000
     atom:   25    charge:    3.9692    magn:    0.6834    constr:    0.0000
     atom:   26    charge:    3.9648    magn:    0.6914    constr:    0.0000
     atom:   27    charge:    3.9656    magn:    0.6834    constr:    0.0000
     atom:   28    charge:    3.9682    magn:    0.8301    constr:    0.0000
     atom:   29    charge:    3.9692    magn:    0.6835    constr:    0.0000
     atom:   30    charge:    3.9637    magn:    0.6920    constr:    0.0000
     atom:   31    charge:    3.9699    magn:    0.6813    constr:    0.0000
     atom:   32    charge:    3.9675    magn:    0.8236    constr:    0.0000
     atom:   33    charge:    3.9699    magn:    0.6830    constr:    0.0000
     atom:   34    charge:    3.9645    magn:    0.6887    constr:    0.0000
     atom:   35    charge:    3.9696    magn:    0.6816    constr:    0.0000
     atom:   36    charge:    3.9680    magn:    0.8233    constr:    0.0000
     atom:   37    charge:    2.0662    magn:    0.5645    constr:    0.0000
     atom:   38    charge:    2.0660    magn:    0.5648    constr:    0.0000
     atom:   39    charge:    2.0660    magn:    0.5634    constr:    0.0000
     atom:   40    charge:    2.0674    magn:    0.5748    constr:    0.0000
     atom:   41    charge:    2.0660    magn:    0.5643    constr:    0.0000
     atom:   42    charge:    2.0660    magn:    0.5749    constr:    0.0000
     atom:   43    charge:    2.0660    magn:    0.5615    constr:    0.0000
     atom:   44    charge:    2.0660    magn:    0.5638    constr:    0.0000

     total cpu time spent up to now is      675.5 secs

     total energy              =   -3891.44547297 Ry
     Harris-Foulkes estimate   =   -3890.97068401 Ry
     estimated scf accuracy    <       0.96793211 Ry

     total magnetization       =    42.52 Bohr mag/cell
     absolute magnetization    =    44.06 Bohr mag/cell

     iteration #  8     ecut=    44.10 Ry     beta=0.10
     Davidson diagonalization with overlap
     ethr =  2.37E-04,  avg # of iterations =  3.3

     negative rho (up, down):  6.382E-04 6.735E-04
 
     Adding external electric field

     Computed dipole along edir(3) : 
        Dipole               -1.2135 Ry au,         -3.0843 Debye
        Dipole field         -0.0022 Ry au
 
        Potential amp.        0.1688 Ry
        Total length         38.9923 bohr
 
 
     Adding external electric field

     Computed dipole along edir(3) : 
        Dipole               -1.2135 Ry au,         -3.0843 Debye
        Dipole field         -0.0022 Ry au
 
        Potential amp.        0.1688 Ry
        Total length         38.9923 bohr
 
 
     Magnetic moment per site:
     atom:    1    charge:    3.9646    magn:    0.5717    constr:    0.0000
     atom:    2    charge:    3.9676    magn:    0.5747    constr:    0.0000
     atom:    3    charge:    3.9707    magn:    0.5677    constr:    0.0000
     atom:    4    charge:    3.9761    magn:    0.6855    constr:    0.0000
     atom:    5    charge:    3.9643    magn:    0.5722    constr:    0.0000
     atom:    6    charge:    3.9656    magn:    0.5750    constr:    0.0000
     atom:    7    charge:    3.9712    magn:    0.5657    constr:    0.0000
     atom:    8    charge:    3.9732    magn:    0.6836    constr:    0.0000
     atom:    9    charge:    3.9653    magn:    0.5713    constr:    0.0000
     atom:   10    charge:    3.9683    magn:    0.5744    constr:    0.0000
     atom:   11    charge:    3.9700    magn:    0.5643    constr:    0.0000
     atom:   12    charge:    3.9722    magn:    0.7335    constr:    0.0000
     atom:   13    charge:    3.9654    magn:    0.5712    constr:    0.0000
     atom:   14    charge:    3.9676    magn:    0.5788    constr:    0.0000
     atom:   15    charge:    3.9709    magn:    0.5670    constr:    0.0000
     atom:   16    charge:    3.9701    magn:    0.7405    constr:    0.0000
     atom:   17    charge:    3.9625    magn:    0.5739    constr:    0.0000
     atom:   18    charge:    3.9649    magn:    0.5753    constr:    0.0000
     atom:   19    charge:    3.9684    magn:    0.5565    constr:    0.0000
     atom:   20    charge:    3.9754    magn:    0.6843    constr:    0.0000
     atom:   21    charge:    3.9637    magn:    0.5727    constr:    0.0000
     atom:   22    charge:    3.9658    magn:    0.5744    constr:    0.0000
     atom:   23    charge:    3.9712    magn:    0.5661    constr:    0.0000
     atom:   24    charge:    3.9692    magn:    0.7411    constr:    0.0000
     atom:   25    charge:    3.9644    magn:    0.5721    constr:    0.0000
     atom:   26    charge:    3.9671    magn:    0.5790    constr:    0.0000
     atom:   27    charge:    3.9696    magn:    0.5672    constr:    0.0000
     atom:   28    charge:    3.9704    magn:    0.7410    constr:    0.0000
     atom:   29    charge:    3.9641    magn:    0.5724    constr:    0.0000
     atom:   30    charge:    3.9676    magn:    0.5783    constr:    0.0000
     atom:   31    charge:    3.9710    magn:    0.5667    constr:    0.0000
     atom:   32    charge:    3.9716    magn:    0.7327    constr:    0.0000
     atom:   33    charge:    3.9625    magn:    0.5738    constr:    0.0000
     atom:   34    charge:    3.9676    magn:    0.5751    constr:    0.0000
     atom:   35    charge:    3.9708    magn:    0.5669    constr:    0.0000
     atom:   36    charge:    3.9723    magn:    0.7336    constr:    0.0000
     atom:   37    charge:    2.0689    magn:    0.4603    constr:    0.0000
     atom:   38    charge:    2.0687    magn:    0.4606    constr:    0.0000
     atom:   39    charge:    2.0688    magn:    0.4590    constr:    0.0000
     atom:   40    charge:    2.0687    magn:    0.4726    constr:    0.0000
     atom:   41    charge:    2.0691    magn:    0.4604    constr:    0.0000
     atom:   42    charge:    2.0681    magn:    0.4734    constr:    0.0000
     atom:   43    charge:    2.0683    magn:    0.4561    constr:    0.0000
     atom:   44    charge:    2.0682    magn:    0.4590    constr:    0.0000

     total cpu time spent up to now is      760.7 secs

     total energy              =   -3891.69754477 Ry
     Harris-Foulkes estimate   =   -3891.51793195 Ry
     estimated scf accuracy    <       1.40446680 Ry

     total magnetization       =    37.75 Bohr mag/cell
     absolute magnetization    =    40.10 Bohr mag/cell

     iteration #  9     ecut=    44.10 Ry     beta=0.10
     Davidson diagonalization with overlap
     ethr =  2.37E-04,  avg # of iterations =  3.4

     negative rho (up, down):  6.398E-04 6.306E-04
 
     Adding external electric field

     Computed dipole along edir(3) : 
        Dipole               -1.1570 Ry au,         -2.9408 Debye
        Dipole field         -0.0021 Ry au
 
        Potential amp.        0.1609 Ry
        Total length         38.9923 bohr
 
 
     Adding external electric field

     Computed dipole along edir(3) : 
        Dipole               -1.1570 Ry au,         -2.9408 Debye
        Dipole field         -0.0021 Ry au
 
        Potential amp.        0.1609 Ry
        Total length         38.9923 bohr
 
 
     Magnetic moment per site:
     atom:    1    charge:    3.9636    magn:    0.5545    constr:    0.0000
     atom:    2    charge:    3.9678    magn:    0.5568    constr:    0.0000
     atom:    3    charge:    3.9707    magn:    0.5493    constr:    0.0000
     atom:    4    charge:    3.9771    magn:    0.6672    constr:    0.0000
     atom:    5    charge:    3.9634    magn:    0.5549    constr:    0.0000
     atom:    6    charge:    3.9674    magn:    0.5561    constr:    0.0000
     atom:    7    charge:    3.9711    magn:    0.5472    constr:    0.0000
     atom:    8    charge:    3.9740    magn:    0.6642    constr:    0.0000
     atom:    9    charge:    3.9636    magn:    0.5546    constr:    0.0000
     atom:   10    charge:    3.9680    magn:    0.5568    constr:    0.0000
     atom:   11    charge:    3.9705    magn:    0.5455    constr:    0.0000
     atom:   12    charge:    3.9725    magn:    0.7158    constr:    0.0000
     atom:   13    charge:    3.9636    magn:    0.5545    constr:    0.0000
     atom:   14    charge:    3.9678    magn:    0.5611    constr:    0.0000
     atom:   15    charge:    3.9708    magn:    0.5487    constr:    0.0000
     atom:   16    charge:    3.9704    magn:    0.7222    constr:    0.0000
     atom:   17    charge:    3.9635    magn:    0.5552    constr:    0.0000
     atom:   18    charge:    3.9672    magn:    0.5560    constr:    0.0000
     atom:   19    charge:    3.9678    magn:    0.5384    constr:    0.0000
     atom:   20    charge:    3.9767    magn:    0.6656    constr:    0.0000
     atom:   21    charge:    3.9638    magn:    0.5548    constr:    0.0000
     atom:   22    charge:    3.9675    magn:    0.5556    constr:    0.0000
     atom:   23    charge:    3.9712    magn:    0.5476    constr:    0.0000
     atom:   24    charge:    3.9694    magn:    0.7223    constr:    0.0000
     atom:   25    charge:    3.9634    magn:    0.5549    constr:    0.0000
     atom:   26    charge:    3.9676    magn:    0.5611    constr:    0.0000
     atom:   27    charge:    3.9710    magn:    0.5479    constr:    0.0000
     atom:   28    charge:    3.9708    magn:    0.7227    constr:    0.0000
     atom:   29    charge:    3.9635    magn:    0.5550    constr:    0.0000
     atom:   30    charge:    3.9678    magn:    0.5606    constr:    0.0000
     atom:   31    charge:    3.9708    magn:    0.5484    constr:    0.0000
     atom:   32    charge:    3.9720    magn:    0.7147    constr:    0.0000
     atom:   33    charge:    3.9635    magn:    0.5552    constr:    0.0000
     atom:   34    charge:    3.9679    magn:    0.5572    constr:    0.0000
     atom:   35    charge:    3.9709    magn:    0.5483    constr:    0.0000
     atom:   36    charge:    3.9726    magn:    0.7162    constr:    0.0000
     atom:   37    charge:    2.0676    magn:    0.4417    constr:    0.0000
     atom:   38    charge:    2.0674    magn:    0.4420    constr:    0.0000
     atom:   39    charge:    2.0675    magn:    0.4403    constr:    0.0000
     atom:   40    charge:    2.0670    magn:    0.4540    constr:    0.0000
     atom:   41    charge:    2.0679    magn:    0.4419    constr:    0.0000
     atom:   42    charge:    2.0664    magn:    0.4549    constr:    0.0000
     atom:   43    charge:    2.0669    magn:    0.4372    constr:    0.0000
     atom:   44    charge:    2.0668    magn:    0.4401    constr:    0.0000

     total cpu time spent up to now is      846.6 secs

     total energy              =   -3891.77445144 Ry
     Harris-Foulkes estimate   =   -3891.75999812 Ry
     estimated scf accuracy    <       2.00658917 Ry

     total magnetization       =    31.23 Bohr mag/cell
     absolute magnetization    =    34.68 Bohr mag/cell

     iteration # 10     ecut=    44.10 Ry     beta=0.10
     Davidson diagonalization with overlap
     ethr =  2.37E-04,  avg # of iterations =  1.0

     negative rho (up, down):  6.531E-04 6.664E-04
 
     Adding external electric field

     Computed dipole along edir(3) : 
        Dipole               -1.0823 Ry au,         -2.7510 Debye
        Dipole field         -0.0019 Ry au
 
        Potential amp.        0.1505 Ry
        Total length         38.9923 bohr
 
 
     Adding external electric field

     Computed dipole along edir(3) : 
        Dipole               -1.0823 Ry au,         -2.7510 Debye
        Dipole field         -0.0019 Ry au
 
        Potential amp.        0.1505 Ry
        Total length         38.9923 bohr
 
 
     Magnetic moment per site:
     atom:    1    charge:    3.9657    magn:    0.5077    constr:    0.0000
     atom:    2    charge:    3.9695    magn:    0.5097    constr:    0.0000
     atom:    3    charge:    3.9711    magn:    0.5013    constr:    0.0000
     atom:    4    charge:    3.9770    magn:    0.6171    constr:    0.0000
     atom:    5    charge:    3.9651    magn:    0.5086    constr:    0.0000
     atom:    6    charge:    3.9695    magn:    0.5088    constr:    0.0000
     atom:    7    charge:    3.9709    magn:    0.4993    constr:    0.0000
     atom:    8    charge:    3.9737    magn:    0.6099    constr:    0.0000
     atom:    9    charge:    3.9663    magn:    0.5074    constr:    0.0000
     atom:   10    charge:    3.9697    magn:    0.5097    constr:    0.0000
     atom:   11    charge:    3.9701    magn:    0.4982    constr:    0.0000
     atom:   12    charge:    3.9731    magn:    0.6665    constr:    0.0000
     atom:   13    charge:    3.9665    magn:    0.5072    constr:    0.0000
     atom:   14    charge:    3.9694    magn:    0.5142    constr:    0.0000
     atom:   15    charge:    3.9710    magn:    0.5007    constr:    0.0000
     atom:   16    charge:    3.9710    magn:    0.6703    constr:    0.0000
     atom:   17    charge:    3.9632    magn:    0.5100    constr:    0.0000
     atom:   18    charge:    3.9696    magn:    0.5085    constr:    0.0000
     atom:   19    charge:    3.9691    magn:    0.4903    constr:    0.0000
     atom:   20    charge:    3.9767    magn:    0.6144    constr:    0.0000
     atom:   21    charge:    3.9637    magn:    0.5094    constr:    0.0000
     atom:   22    charge:    3.9694    magn:    0.5084    constr:    0.0000
     atom:   23    charge:    3.9707    magn:    0.4998    constr:    0.0000
     atom:   24    charge:    3.9699    magn:    0.6680    constr:    0.0000
     atom:   25    charge:    3.9653    magn:    0.5085    constr:    0.0000
     atom:   26    charge:    3.9694    magn:    0.5141    constr:    0.0000
     atom:   27    charge:    3.9699    magn:    0.5007    constr:    0.0000
     atom:   28    charge:    3.9714    magn:    0.6709    constr:    0.0000
     atom:   29    charge:    3.9647    magn:    0.5090    constr:    0.0000
     atom:   30    charge:    3.9694    magn:    0.5137    constr:    0.0000
     atom:   31    charge:    3.9709    magn:    0.5004    constr:    0.0000
     atom:   32    charge:    3.9728    magn:    0.6645    constr:    0.0000
     atom:   33    charge:    3.9633    magn:    0.5099    constr:    0.0000
     atom:   34    charge:    3.9693    magn:    0.5102    constr:    0.0000
     atom:   35    charge:    3.9709    magn:    0.5005    constr:    0.0000
     atom:   36    charge:    3.9731    magn:    0.6679    constr:    0.0000
     atom:   37    charge:    2.0617    magn:    0.3907    constr:    0.0000
     atom:   38    charge:    2.0616    magn:    0.3909    constr:    0.0000
     atom:   39    charge:    2.0616    magn:    0.3891    constr:    0.0000
     atom:   40    charge:    2.0610    magn:    0.4028    constr:    0.0000
     atom:   41    charge:    2.0622    magn:    0.3916    constr:    0.0000
     atom:   42    charge:    2.0604    magn:    0.4040    constr:    0.0000
     atom:   43    charge:    2.0607    magn:    0.3851    constr:    0.0000
     atom:   44    charge:    2.0607    magn:    0.3880    constr:    0.0000

     total cpu time spent up to now is      920.6 secs

     total energy              =   -3891.81798997 Ry
     Harris-Foulkes estimate   =   -3891.77937476 Ry
     estimated scf accuracy    <       0.92547779 Ry

     total magnetization       =    31.01 Bohr mag/cell
     absolute magnetization    =    34.64 Bohr mag/cell

     iteration # 11     ecut=    44.10 Ry     beta=0.10
     Davidson diagonalization with overlap
     ethr =  2.27E-04,  avg # of iterations =  1.9

     negative rho (up, down):  6.697E-04 7.540E-04
 
     Adding external electric field

     Computed dipole along edir(3) : 
        Dipole               -1.1694 Ry au,         -2.9722 Debye
        Dipole field         -0.0021 Ry au
 
        Potential amp.        0.1626 Ry
        Total length         38.9923 bohr
 
 
     Adding external electric field

     Computed dipole along edir(3) : 
        Dipole               -1.1694 Ry au,         -2.9722 Debye
        Dipole field         -0.0021 Ry au
 
        Potential amp.        0.1626 Ry
        Total length         38.9923 bohr
 
 
     Magnetic moment per site:
     atom:    1    charge:    3.9688    magn:    0.4385    constr:    0.0000
     atom:    2    charge:    3.9717    magn:    0.4389    constr:    0.0000
     atom:    3    charge:    3.9703    magn:    0.4306    constr:    0.0000
     atom:    4    charge:    3.9723    magn:    0.5419    constr:    0.0000
     atom:    5    charge:    3.9699    magn:    0.4386    constr:    0.0000
     atom:    6    charge:    3.9695    magn:    0.4396    constr:    0.0000
     atom:    7    charge:    3.9709    magn:    0.4277    constr:    0.0000
     atom:    8    charge:    3.9701    magn:    0.5258    constr:    0.0000
     atom:    9    charge:    3.9681    magn:    0.4390    constr:    0.0000
     atom:   10    charge:    3.9721    magn:    0.4388    constr:    0.0000
     atom:   11    charge:    3.9685    magn:    0.4291    constr:    0.0000
     atom:   12    charge:    3.9720    magn:    0.5920    constr:    0.0000
     atom:   13    charge:    3.9679    magn:    0.4391    constr:    0.0000
     atom:   14    charge:    3.9715    magn:    0.4437    constr:    0.0000
     atom:   15    charge:    3.9706    magn:    0.4297    constr:    0.0000
     atom:   16    charge:    3.9697    magn:    0.5901    constr:    0.0000
     atom:   17    charge:    3.9705    magn:    0.4381    constr:    0.0000
     atom:   18    charge:    3.9686    magn:    0.4397    constr:    0.0000
     atom:   19    charge:    3.9681    magn:    0.4214    constr:    0.0000
     atom:   20    charge:    3.9716    magn:    0.5374    constr:    0.0000
     atom:   21    charge:    3.9713    magn:    0.4374    constr:    0.0000
     atom:   22    charge:    3.9700    magn:    0.4388    constr:    0.0000
     atom:   23    charge:    3.9711    magn:    0.4282    constr:    0.0000
     atom:   24    charge:    3.9690    magn:    0.5835    constr:    0.0000
     atom:   25    charge:    3.9698    magn:    0.4387    constr:    0.0000
     atom:   26    charge:    3.9710    magn:    0.4439    constr:    0.0000
     atom:   27    charge:    3.9692    magn:    0.4302    constr:    0.0000
     atom:   28    charge:    3.9700    magn:    0.5914    constr:    0.0000
     atom:   29    charge:    3.9701    magn:    0.4386    constr:    0.0000
     atom:   30    charge:    3.9716    magn:    0.4430    constr:    0.0000
     atom:   31    charge:    3.9707    magn:    0.4292    constr:    0.0000
     atom:   32    charge:    3.9717    magn:    0.5884    constr:    0.0000
     atom:   33    charge:    3.9707    magn:    0.4380    constr:    0.0000
     atom:   34    charge:    3.9720    magn:    0.4393    constr:    0.0000
     atom:   35    charge:    3.9707    magn:    0.4293    constr:    0.0000
     atom:   36    charge:    3.9723    magn:    0.5951    constr:    0.0000
     atom:   37    charge:    2.0515    magn:    0.3121    constr:    0.0000
     atom:   38    charge:    2.0515    magn:    0.3124    constr:    0.0000
     atom:   39    charge:    2.0512    magn:    0.3104    constr:    0.0000
     atom:   40    charge:    2.0515    magn:    0.3242    constr:    0.0000
     atom:   41    charge:    2.0521    magn:    0.3144    constr:    0.0000
     atom:   42    charge:    2.0516    magn:    0.3262    constr:    0.0000
     atom:   43    charge:    2.0500    magn:    0.3044    constr:    0.0000
     atom:   44    charge:    2.0502    magn:    0.3075    constr:    0.0000

     total cpu time spent up to now is      999.0 secs

     total energy              =   -3891.85597861 Ry
     Harris-Foulkes estimate   =   -3891.83089838 Ry
     estimated scf accuracy    <       0.23189703 Ry

     total magnetization       =    29.93 Bohr mag/cell
     absolute magnetization    =    33.99 Bohr mag/cell

     iteration # 12     ecut=    44.10 Ry     beta=0.10
     Davidson diagonalization with overlap
     ethr =  5.68E-05,  avg # of iterations =  9.6

     negative rho (up, down):  6.299E-04 7.268E-04
 
     Adding external electric field

     Computed dipole along edir(3) : 
        Dipole               -1.2429 Ry au,         -3.1590 Debye
        Dipole field         -0.0022 Ry au
 
        Potential amp.        0.1729 Ry
        Total length         38.9923 bohr
 
 
     Adding external electric field

     Computed dipole along edir(3) : 
        Dipole               -1.2429 Ry au,         -3.1590 Debye
        Dipole field         -0.0022 Ry au
 
        Potential amp.        0.1729 Ry
        Total length         38.9923 bohr
 
 
     Magnetic moment per site:
     atom:    1    charge:    3.9710    magn:    0.4095    constr:    0.0000
     atom:    2    charge:    3.9721    magn:    0.4095    constr:    0.0000
     atom:    3    charge:    3.9706    magn:    0.4011    constr:    0.0000
     atom:    4    charge:    3.9670    magn:    0.5002    constr:    0.0000
     atom:    5    charge:    3.9688    magn:    0.4118    constr:    0.0000
     atom:    6    charge:    3.9711    magn:    0.4101    constr:    0.0000
     atom:    7    charge:    3.9708    magn:    0.3982    constr:    0.0000
     atom:    8    charge:    3.9650    magn:    0.4766    constr:    0.0000
     atom:    9    charge:    3.9707    magn:    0.4098    constr:    0.0000
     atom:   10    charge:    3.9710    magn:    0.4104    constr:    0.0000
     atom:   11    charge:    3.9701    magn:    0.4002    constr:    0.0000
     atom:   12    charge:    3.9668    magn:    0.5468    constr:    0.0000
     atom:   13    charge:    3.9711    magn:    0.4095    constr:    0.0000
     atom:   14    charge:    3.9713    magn:    0.4146    constr:    0.0000
     atom:   15    charge:    3.9707    magn:    0.4001    constr:    0.0000
     atom:   16    charge:    3.9643    magn:    0.5402    constr:    0.0000
     atom:   17    charge:    3.9712    magn:    0.4098    constr:    0.0000
     atom:   18    charge:    3.9708    magn:    0.4099    constr:    0.0000
     atom:   19    charge:    3.9672    magn:    0.3954    constr:    0.0000
     atom:   20    charge:    3.9664    magn:    0.4946    constr:    0.0000
     atom:   21    charge:    3.9693    magn:    0.4110    constr:    0.0000
     atom:   22    charge:    3.9709    magn:    0.4097    constr:    0.0000
     atom:   23    charge:    3.9708    magn:    0.3986    constr:    0.0000
     atom:   24    charge:    3.9628    magn:    0.5292    constr:    0.0000
     atom:   25    charge:    3.9685    magn:    0.4121    constr:    0.0000
     atom:   26    charge:    3.9712    magn:    0.4147    constr:    0.0000
     atom:   27    charge:    3.9719    magn:    0.3998    constr:    0.0000
     atom:   28    charge:    3.9642    magn:    0.5418    constr:    0.0000
     atom:   29    charge:    3.9696    magn:    0.4115    constr:    0.0000
     atom:   30    charge:    3.9712    magn:    0.4140    constr:    0.0000
     atom:   31    charge:    3.9705    magn:    0.3998    constr:    0.0000
     atom:   32    charge:    3.9667    magn:    0.5424    constr:    0.0000
     atom:   33    charge:    3.9703    magn:    0.4105    constr:    0.0000
     atom:   34    charge:    3.9716    magn:    0.4104    constr:    0.0000
     atom:   35    charge:    3.9706    magn:    0.3999    constr:    0.0000
     atom:   36    charge:    3.9670    magn:    0.5511    constr:    0.0000
     atom:   37    charge:    2.0425    magn:    0.2699    constr:    0.0000
     atom:   38    charge:    2.0425    magn:    0.2703    constr:    0.0000
     atom:   39    charge:    2.0425    magn:    0.2681    constr:    0.0000
     atom:   40    charge:    2.0438    magn:    0.2817    constr:    0.0000
     atom:   41    charge:    2.0428    magn:    0.2733    constr:    0.0000
     atom:   42    charge:    2.0440    magn:    0.2840    constr:    0.0000
     atom:   43    charge:    2.0419    magn:    0.2612    constr:    0.0000
     atom:   44    charge:    2.0419    magn:    0.2640    constr:    0.0000

     total cpu time spent up to now is     1119.5 secs

     total energy              =   -3891.88712533 Ry
     Harris-Foulkes estimate   =   -3891.88429220 Ry
     estimated scf accuracy    <       0.79794068 Ry

     total magnetization       =    24.96 Bohr mag/cell
     absolute magnetization    =    29.62 Bohr mag/cell

     iteration # 13     ecut=    44.10 Ry     beta=0.10
     Davidson diagonalization with overlap
     ethr =  5.68E-05,  avg # of iterations =  1.4

     negative rho (up, down):  6.101E-04 7.279E-04
 
     Adding external electric field

     Computed dipole along edir(3) : 
        Dipole               -1.2016 Ry au,         -3.0541 Debye
        Dipole field         -0.0021 Ry au
 
        Potential amp.        0.1671 Ry
        Total length         38.9923 bohr
 
 
     Adding external electric field

     Computed dipole along edir(3) : 
        Dipole               -1.2016 Ry au,         -3.0541 Debye
        Dipole field         -0.0021 Ry au
 
        Potential amp.        0.1671 Ry
        Total length         38.9923 bohr
 
 
     Magnetic moment per site:
     atom:    1    charge:    3.9711    magn:    0.3790    constr:    0.0000
     atom:    2    charge:    3.9721    magn:    0.3774    constr:    0.0000
     atom:    3    charge:    3.9706    magn:    0.3679    constr:    0.0000
     atom:    4    charge:    3.9653    magn:    0.4542    constr:    0.0000
     atom:    5    charge:    3.9715    magn:    0.3799    constr:    0.0000
     atom:    6    charge:    3.9724    magn:    0.3775    constr:    0.0000
     atom:    7    charge:    3.9710    magn:    0.3644    constr:    0.0000
     atom:    8    charge:    3.9633    magn:    0.4241    constr:    0.0000
     atom:    9    charge:    3.9717    magn:    0.3787    constr:    0.0000
     atom:   10    charge:    3.9726    magn:    0.3772    constr:    0.0000
     atom:   11    charge:    3.9701    magn:    0.3677    constr:    0.0000
     atom:   12    charge:    3.9646    magn:    0.4977    constr:    0.0000
     atom:   13    charge:    3.9714    magn:    0.3788    constr:    0.0000
     atom:   14    charge:    3.9725    magn:    0.3817    constr:    0.0000
     atom:   15    charge:    3.9705    magn:    0.3670    constr:    0.0000
     atom:   16    charge:    3.9619    magn:    0.4870    constr:    0.0000
     atom:   17    charge:    3.9707    magn:    0.3796    constr:    0.0000
     atom:   18    charge:    3.9720    magn:    0.3775    constr:    0.0000
     atom:   19    charge:    3.9676    magn:    0.3643    constr:    0.0000
     atom:   20    charge:    3.9649    magn:    0.4473    constr:    0.0000
     atom:   21    charge:    3.9717    magn:    0.3790    constr:    0.0000
     atom:   22    charge:    3.9727    magn:    0.3769    constr:    0.0000
     atom:   23    charge:    3.9713    magn:    0.3648    constr:    0.0000
     atom:   24    charge:    3.9613    magn:    0.4723    constr:    0.0000
     atom:   25    charge:    3.9715    magn:    0.3801    constr:    0.0000
     atom:   26    charge:    3.9724    magn:    0.3818    constr:    0.0000
     atom:   27    charge:    3.9714    magn:    0.3667    constr:    0.0000
     atom:   28    charge:    3.9623    magn:    0.4888    constr:    0.0000
     atom:   29    charge:    3.9713    magn:    0.3803    constr:    0.0000
     atom:   30    charge:    3.9726    magn:    0.3810    constr:    0.0000
     atom:   31    charge:    3.9704    magn:    0.3666    constr:    0.0000
     atom:   32    charge:    3.9642    magn:    0.4926    constr:    0.0000
     atom:   33    charge:    3.9712    magn:    0.3794    constr:    0.0000
     atom:   34    charge:    3.9723    magn:    0.3779    constr:    0.0000
     atom:   35    charge:    3.9708    magn:    0.3665    constr:    0.0000
     atom:   36    charge:    3.9647    magn:    0.5034    constr:    0.0000
     atom:   37    charge:    2.0340    magn:    0.2254    constr:    0.0000
     atom:   38    charge:    2.0340    magn:    0.2258    constr:    0.0000
     atom:   39    charge:    2.0340    magn:    0.2235    constr:    0.0000
     atom:   40    charge:    2.0358    magn:    0.2369    constr:    0.0000
     atom:   41    charge:    2.0342    magn:    0.2297    constr:    0.0000
     atom:   42    charge:    2.0357    magn:    0.2393    constr:    0.0000
     atom:   43    charge:    2.0335    magn:    0.2156    constr:    0.0000
     atom:   44    charge:    2.0336    magn:    0.2183    constr:    0.0000

     total cpu time spent up to now is     1195.7 secs

     total energy              =   -3891.88409819 Ry
     Harris-Foulkes estimate   =   -3891.89877756 Ry
     estimated scf accuracy    <       1.91716358 Ry

     total magnetization       =    22.63 Bohr mag/cell
     absolute magnetization    =    27.38 Bohr mag/cell

     iteration # 14     ecut=    44.10 Ry     beta=0.10
     Davidson diagonalization with overlap
     ethr =  5.68E-05,  avg # of iterations =  1.0

     negative rho (up, down):  5.812E-04 6.736E-04
 
     Adding external electric field

     Computed dipole along edir(3) : 
        Dipole               -1.2028 Ry au,         -3.0573 Debye
        Dipole field         -0.0021 Ry au
 
        Potential amp.        0.1673 Ry
        Total length         38.9923 bohr
 
 
     Adding external electric field

     Computed dipole along edir(3) : 
        Dipole               -1.2028 Ry au,         -3.0573 Debye
        Dipole field         -0.0021 Ry au
 
        Potential amp.        0.1673 Ry
        Total length         38.9923 bohr
 
 
     Magnetic moment per site:
     atom:    1    charge:    3.9724    magn:    0.3745    constr:    0.0000
     atom:    2    charge:    3.9735    magn:    0.3719    constr:    0.0000
     atom:    3    charge:    3.9711    magn:    0.3625    constr:    0.0000
     atom:    4    charge:    3.9662    magn:    0.4415    constr:    0.0000
     atom:    5    charge:    3.9716    magn:    0.3762    constr:    0.0000
     atom:    6    charge:    3.9714    magn:    0.3735    constr:    0.0000
     atom:    7    charge:    3.9709    magn:    0.3594    constr:    0.0000
     atom:    8    charge:    3.9632    magn:    0.4094    constr:    0.0000
     atom:    9    charge:    3.9715    magn:    0.3751    constr:    0.0000
     atom:   10    charge:    3.9728    magn:    0.3723    constr:    0.0000
     atom:   11    charge:    3.9697    magn:    0.3631    constr:    0.0000
     atom:   12    charge:    3.9645    magn:    0.4838    constr:    0.0000
     atom:   13    charge:    3.9719    magn:    0.3748    constr:    0.0000
     atom:   14    charge:    3.9724    magn:    0.3769    constr:    0.0000
     atom:   15    charge:    3.9713    magn:    0.3615    constr:    0.0000
     atom:   16    charge:    3.9619    magn:    0.4716    constr:    0.0000
     atom:   17    charge:    3.9727    magn:    0.3747    constr:    0.0000
     atom:   18    charge:    3.9716    magn:    0.3731    constr:    0.0000
     atom:   19    charge:    3.9688    magn:    0.3600    constr:    0.0000
     atom:   20    charge:    3.9654    magn:    0.4342    constr:    0.0000
     atom:   21    charge:    3.9717    magn:    0.3753    constr:    0.0000
     atom:   22    charge:    3.9712    magn:    0.3732    constr:    0.0000
     atom:   23    charge:    3.9708    magn:    0.3598    constr:    0.0000
     atom:   24    charge:    3.9610    magn:    0.4558    constr:    0.0000
     atom:   25    charge:    3.9714    magn:    0.3766    constr:    0.0000
     atom:   26    charge:    3.9722    magn:    0.3771    constr:    0.0000
     atom:   27    charge:    3.9702    magn:    0.3622    constr:    0.0000
     atom:   28    charge:    3.9623    magn:    0.4736    constr:    0.0000
     atom:   29    charge:    3.9720    magn:    0.3761    constr:    0.0000
     atom:   30    charge:    3.9724    magn:    0.3763    constr:    0.0000
     atom:   31    charge:    3.9710    magn:    0.3613    constr:    0.0000
     atom:   32    charge:    3.9639    magn:    0.4784    constr:    0.0000
     atom:   33    charge:    3.9721    magn:    0.3751    constr:    0.0000
     atom:   34    charge:    3.9731    magn:    0.3727    constr:    0.0000
     atom:   35    charge:    3.9708    magn:    0.3614    constr:    0.0000
     atom:   36    charge:    3.9650    magn:    0.4899    constr:    0.0000
     atom:   37    charge:    2.0332    magn:    0.2150    constr:    0.0000
     atom:   38    charge:    2.0332    magn:    0.2155    constr:    0.0000
     atom:   39    charge:    2.0332    magn:    0.2131    constr:    0.0000
     atom:   40    charge:    2.0351    magn:    0.2264    constr:    0.0000
     atom:   41    charge:    2.0336    magn:    0.2197    constr:    0.0000
     atom:   42    charge:    2.0349    magn:    0.2288    constr:    0.0000
     atom:   43    charge:    2.0327    magn:    0.2050    constr:    0.0000
     atom:   44    charge:    2.0328    magn:    0.2075    constr:    0.0000

     total cpu time spent up to now is     1269.8 secs

     total energy              =   -3891.89439528 Ry
     Harris-Foulkes estimate   =   -3891.89494773 Ry
     estimated scf accuracy    <       0.30423326 Ry

     total magnetization       =    22.66 Bohr mag/cell
     absolute magnetization    =    27.42 Bohr mag/cell

     iteration # 15     ecut=    44.10 Ry     beta=0.10
     Davidson diagonalization with overlap
     ethr =  5.68E-05,  avg # of iterations =  1.0

     negative rho (up, down):  5.368E-04 6.122E-04
 
     Adding external electric field

     Computed dipole along edir(3) : 
        Dipole               -1.2010 Ry au,         -3.0527 Debye
        Dipole field         -0.0021 Ry au
 
        Potential amp.        0.1670 Ry
        Total length         38.9923 bohr
 
 
     Adding external electric field

     Computed dipole along edir(3) : 
        Dipole               -1.2010 Ry au,         -3.0527 Debye
        Dipole field         -0.0021 Ry au
 
        Potential amp.        0.1670 Ry
        Total length         38.9923 bohr
 
 
     Magnetic moment per site:
     atom:    1    charge:    3.9721    magn:    0.3733    constr:    0.0000
     atom:    2    charge:    3.9713    magn:    0.3703    constr:    0.0000
     atom:    3    charge:    3.9708    magn:    0.3594    constr:    0.0000
     atom:    4    charge:    3.9650    magn:    0.4236    constr:    0.0000
     atom:    5    charge:    3.9718    magn:    0.3747    constr:    0.0000
     atom:    6    charge:    3.9713    magn:    0.3712    constr:    0.0000
     atom:    7    charge:    3.9711    magn:    0.3559    constr:    0.0000
     atom:    8    charge:    3.9626    magn:    0.3870    constr:    0.0000
     atom:    9    charge:    3.9724    magn:    0.3732    constr:    0.0000
     atom:   10    charge:    3.9715    magn:    0.3701    constr:    0.0000
     atom:   11    charge:    3.9697    magn:    0.3605    constr:    0.0000
     atom:   12    charge:    3.9632    magn:    0.4629    constr:    0.0000
     atom:   13    charge:    3.9724    magn:    0.3731    constr:    0.0000
     atom:   14    charge:    3.9715    magn:    0.3743    constr:    0.0000
     atom:   15    charge:    3.9707    magn:    0.3585    constr:    0.0000
     atom:   16    charge:    3.9608    magn:    0.4476    constr:    0.0000
     atom:   17    charge:    3.9721    magn:    0.3736    constr:    0.0000
     atom:   18    charge:    3.9711    magn:    0.3710    constr:    0.0000
     atom:   19    charge:    3.9691    magn:    0.3590    constr:    0.0000
     atom:   20    charge:    3.9646    magn:    0.4155    constr:    0.0000
     atom:   21    charge:    3.9719    magn:    0.3737    constr:    0.0000
     atom:   22    charge:    3.9714    magn:    0.3708    constr:    0.0000
     atom:   23    charge:    3.9711    magn:    0.3561    constr:    0.0000
     atom:   24    charge:    3.9597    magn:    0.4294    constr:    0.0000
     atom:   25    charge:    3.9718    magn:    0.3751    constr:    0.0000
     atom:   26    charge:    3.9715    magn:    0.3744    constr:    0.0000
     atom:   27    charge:    3.9715    magn:    0.3580    constr:    0.0000
     atom:   28    charge:    3.9610    magn:    0.4500    constr:    0.0000
     atom:   29    charge:    3.9718    magn:    0.3750    constr:    0.0000
     atom:   30    charge:    3.9715    magn:    0.3736    constr:    0.0000
     atom:   31    charge:    3.9708    magn:    0.3581    constr:    0.0000
     atom:   32    charge:    3.9628    magn:    0.4569    constr:    0.0000
     atom:   33    charge:    3.9720    magn:    0.3737    constr:    0.0000
     atom:   34    charge:    3.9714    magn:    0.3708    constr:    0.0000
     atom:   35    charge:    3.9709    magn:    0.3580    constr:    0.0000
     atom:   36    charge:    3.9635    magn:    0.4700    constr:    0.0000
     atom:   37    charge:    2.0293    magn:    0.2006    constr:    0.0000
     atom:   38    charge:    2.0293    magn:    0.2013    constr:    0.0000
     atom:   39    charge:    2.0293    magn:    0.1988    constr:    0.0000
     atom:   40    charge:    2.0312    magn:    0.2117    constr:    0.0000
     atom:   41    charge:    2.0296    magn:    0.2060    constr:    0.0000
     atom:   42    charge:    2.0310    magn:    0.2144    constr:    0.0000
     atom:   43    charge:    2.0287    magn:    0.1902    constr:    0.0000
     atom:   44    charge:    2.0289    magn:    0.1926    constr:    0.0000

     total cpu time spent up to now is     1344.2 secs

     total energy              =   -3891.90091707 Ry
     Harris-Foulkes estimate   =   -3891.89709133 Ry
     estimated scf accuracy    <       0.07296482 Ry

     total magnetization       =    23.01 Bohr mag/cell
     absolute magnetization    =    27.67 Bohr mag/cell

     iteration # 16     ecut=    44.10 Ry     beta=0.10
     Davidson diagonalization with overlap
     ethr =  1.79E-05,  avg # of iterations =  1.9

     negative rho (up, down):  4.980E-04 5.426E-04
 
     Adding external electric field

     Computed dipole along edir(3) : 
        Dipole               -1.2334 Ry au,         -3.1349 Debye
        Dipole field         -0.0022 Ry au
 
        Potential amp.        0.1715 Ry
        Total length         38.9923 bohr
 
 
     Adding external electric field

     Computed dipole along edir(3) : 
        Dipole               -1.2334 Ry au,         -3.1349 Debye
        Dipole field         -0.0022 Ry au
 
        Potential amp.        0.1715 Ry
        Total length         38.9923 bohr
 
 
     Magnetic moment per site:
     atom:    1    charge:    3.9719    magn:    0.3783    constr:    0.0000
     atom:    2    charge:    3.9706    magn:    0.3742    constr:    0.0000
     atom:    3    charge:    3.9711    magn:    0.3619    constr:    0.0000
     atom:    4    charge:    3.9660    magn:    0.4093    constr:    0.0000
     atom:    5    charge:    3.9722    magn:    0.3793    constr:    0.0000
     atom:    6    charge:    3.9704    magn:    0.3755    constr:    0.0000
     atom:    7    charge:    3.9705    magn:    0.3589    constr:    0.0000
     atom:    8    charge:    3.9632    magn:    0.3687    constr:    0.0000
[...]
     0.7230   0.7236   0.7251   0.7834   0.7839   0.8497   0.8497   0.8618
     0.8627   0.8865   0.8879   0.8896   0.9015   0.9048   0.9190   1.0225
     1.0231   1.0484   1.0495   1.0548   1.0625   1.0640   1.0854   1.1719
     1.1739   1.2012   1.2018   1.2078   1.2192   1.2199   1.2216   1.4087
     1.4639   1.4668   1.6092   1.6099   1.6689   1.6754   1.6760   1.6775
     1.6778   1.6921   1.6923   1.6940   1.7355   1.7405   1.7434   1.7467
     1.7554   1.8593   1.9028   1.9036   2.0187   2.0194   2.0241   2.0247
     2.0255   2.0321   2.0341   2.0355   2.0381   2.0385   2.0399   2.0494
     2.0506   2.0838   2.1388   2.1395   2.1541   2.1544   2.1596   2.1632
     2.1936   2.2078   2.2084   2.2222   2.2350   2.2510   2.2514   2.2515
     2.2539   2.2630   2.2634   2.2971   2.2971   2.3928   2.3930   2.3989
     2.4013   2.4351   2.4351   2.4395   2.4427   2.4498   2.4499   2.6800
     2.7099   2.7304   2.7312   2.7547   2.7556   2.8145   2.8664   2.8785
     2.8792   2.9535   2.9549   3.0133   3.8958   4.4559   4.4759   4.4773
     4.5105   4.5135   6.1455   6.7158   6.9489   6.9567   6.9589   7.0459
     7.0481   7.1354   7.1358   7.4481   7.4520   7.6267   7.6839   7.6853
     8.1249   8.2092   8.2094   8.6468   9.0913   9.0916   9.3959   9.5246
     9.5832   9.6612   9.6622   9.6683   9.7245   9.7251  10.0336  10.2196
    10.3379  10.5077  10.6693  10.6703  10.6888  10.7053  10.7063  10.8933
    10.8961  11.0357  11.2702  11.2715  11.2753  11.3355  11.3399  11.5507
    11.5698  11.5701  11.7001  11.7103  11.7122  11.7403  11.7419  12.1065
    12.1897  12.2862  12.2896  12.3771  12.3806  12.4089  12.4437  12.8318
    12.8333  12.8370  12.9047  12.9083  12.9116  13.2533  13.5756  13.5781

          k = 0.0000 0.0510 0.0000 ( 34862 PWs)   bands (ev):

   -18.0247 -17.6289 -17.3843 -17.2832 -16.8818 -16.8467 -16.7516 -16.5711
    -5.7653  -5.2060  -4.9055  -4.8754  -4.8000  -4.7102  -4.5282  -4.4915
    -4.3260  -3.9911  -3.9415  -3.7987  -3.6987  -3.6618  -3.5629  -3.2354
    -3.2241  -3.1561  -3.1395  -3.0516  -2.9715  -2.8509  -2.8043  -2.7706
    -2.6966  -2.6293  -2.6054  -2.4780  -2.3563  -2.2577  -2.1010  -2.0224
    -1.9949  -1.9887  -1.9129  -1.8397  -1.6725  -1.5571  -1.5313  -1.4625
    -1.3708  -1.2966  -1.2700  -1.1716  -1.0861  -1.0749  -1.0559  -1.0356
    -1.0087  -0.9994  -0.9977  -0.8549  -0.8527  -0.8053  -0.7930  -0.7800
    -0.7616  -0.7346  -0.7001  -0.6891  -0.6311  -0.5833  -0.5734  -0.5363
    -0.5121  -0.5058  -0.4832  -0.4719  -0.4042  -0.3997  -0.3530  -0.3347
    -0.2962  -0.2558  -0.2472  -0.2065  -0.1999  -0.1364  -0.1262  -0.0842
    -0.0587  -0.0471  -0.0181   0.0215   0.0360   0.0618   0.0791   0.1239
     0.1514   0.1714   0.1939   0.2014   0.2333   0.2362   0.2923   0.3022
     0.3551   0.3878   0.4051   0.4322   0.5089   0.5221   0.5308   0.5486
     0.5632   0.5664   0.5929   0.6018   0.6251   0.6436   0.6539   0.6667
     0.6806   0.6979   0.7228   0.7459   0.7778   0.8187   0.8516   0.8544
     0.8835   0.8889   0.9007   0.9176   0.9201   0.9643   0.9853   0.9918
     1.0047   1.0097   1.0175   1.0565   1.0905   1.1073   1.1427   1.1725
     1.1805   1.1911   1.1929   1.2667   1.2872   1.3154   1.3160   1.3302
     1.3351   1.3355   1.3643   1.4801   1.4834   1.5160   1.5572   1.5777
     1.5855   1.6055   1.6159   1.6669   1.6819   1.6834   1.7260   1.7446
     1.7676   1.7876   1.8052   1.8067   1.8139   1.8248   1.8423   1.8754
     1.8810   1.9494   2.0127   2.0164   2.0303   2.0342   2.0364   2.0883
     2.1228   2.1501   2.1559   2.1626   2.1897   2.2188   2.2327   2.2669
     2.2764   2.2825   2.3201   2.3379   2.3412   2.3611   2.3870   2.4048
     2.4058   2.4166   2.4557   2.4624   2.4684   2.4825   2.4944   2.5067
     2.5130   2.5495   2.5537   2.6174   2.6376   2.6433   2.6658   2.7243
     2.7946   2.8010   2.8270   2.9242   2.9604   3.0100   3.0811   3.0914
     3.2518   3.5139   3.6128   3.6535   3.7067   3.9381   4.1502   4.7937
     4.8116   4.9863   5.2717   5.4176   5.5334   5.6621   5.6828   6.1142
     6.3487   6.8530   7.1050   7.2537   7.3164   7.8470   8.1645   8.1957
     8.2568   8.4617   8.4918   8.5275   8.8082   9.0393   9.1851   9.2142
     9.4297   9.4972   9.5108   9.5350   9.5356   9.6366   9.6879  10.0332
    10.2496  10.3852  10.4134  10.4163  10.4787  10.4951  10.7106  10.7739
    10.8335  10.8378  11.0884  11.0952  11.4789  11.5253  11.5367  11.6742
    11.7555  11.7971  11.8405  12.0641  12.2401  12.2548  12.4661  12.4721
    12.6154  12.6335  12.7838  12.9375  13.1053  13.1338  13.1636  13.2027
    13.2833  13.3936  13.6211  13.6555  13.6631  13.6893  13.7103  13.9101

          k = 0.0442 0.0255 0.0000 ( 34862 PWs)   bands (ev):

   -18.0250 -17.6279 -17.3836 -17.2854 -16.8811 -16.8460 -16.7520 -16.5713
    -5.7653  -5.2051  -4.9054  -4.8750  -4.8000  -4.7098  -4.5272  -4.4928
    -4.3280  -3.9909  -3.9408  -3.7988  -3.6981  -3.6614  -3.5642  -3.2354
    -3.2233  -3.1577  -3.1401  -3.0517  -2.9715  -2.8510  -2.8047  -2.7708
    -2.6963  -2.6328  -2.6058  -2.4756  -2.3524  -2.2586  -2.1014  -2.0230
    -1.9948  -1.9884  -1.9130  -1.8399  -1.6730  -1.5573  -1.5308  -1.4627
    -1.3698  -1.2965  -1.2691  -1.1695  -1.0871  -1.0745  -1.0565  -1.0362
    -1.0090  -1.0004  -0.9972  -0.8548  -0.8535  -0.8059  -0.7936  -0.7809
    -0.7610  -0.7346  -0.6993  -0.6891  -0.6322  -0.5829  -0.5739  -0.5363
    -0.5117  -0.5053  -0.4835  -0.4724  -0.4050  -0.3994  -0.3516  -0.3354
    -0.2958  -0.2553  -0.2470  -0.2064  -0.2009  -0.1363  -0.1260  -0.0854
    -0.0584  -0.0473  -0.0196   0.0223   0.0351   0.0629   0.0802   0.1231
     0.1507   0.1721   0.1918   0.2012   0.2317   0.2355   0.2933   0.3047
     0.3545   0.3868   0.4029   0.4337   0.5089   0.5234   0.5301   0.5483
     0.5637   0.5662   0.5936   0.6015   0.6244   0.6431   0.6539   0.6668
     0.6863   0.6997   0.7250   0.7451   0.7786   0.8192   0.8518   0.8548
     0.8830   0.8892   0.9012   0.9174   0.9206   0.9643   0.9856   0.9919
     1.0045   1.0096   1.0176   1.0569   1.0896   1.1074   1.1442   1.1720
     1.1783   1.1895   1.1927   1.2668   1.2875   1.3159   1.3167   1.3303
     1.3353   1.3365   1.3648   1.4799   1.4847   1.5161   1.5580   1.5774
     1.5854   1.6050   1.6157   1.6675   1.6797   1.6854   1.7266   1.7422
     1.7680   1.7863   1.8056   1.8067   1.8131   1.8248   1.8418   1.8754
     1.8806   1.9495   2.0132   2.0171   2.0303   2.0344   2.0368   2.0878
     2.1230   2.1503   2.1553   2.1625   2.1892   2.2185   2.2326   2.2670
     2.2765   2.2826   2.3202   2.3387   2.3419   2.3617   2.3876   2.4036
     2.4067   2.4158   2.4549   2.4624   2.4685   2.4821   2.4941   2.5058
     2.5121   2.5503   2.5537   2.6180   2.6374   2.6433   2.6657   2.7252
     2.7946   2.7998   2.8257   2.9254   2.9610   3.0083   3.0809   3.0915
     3.2546   3.5155   3.6136   3.6552   3.7006   3.9353   4.1472   4.7930
     4.8116   4.9873   5.2714   5.4148   5.5342   5.6630   5.6844   6.1129
     6.3469   6.8512   7.1051   7.2566   7.3188   7.8531   8.1646   8.1954
     8.2563   8.4606   8.4918   8.5260   8.8140   9.0389   9.1847   9.2140
     9.4298   9.4973   9.5097   9.5344   9.5418   9.6373   9.6894  10.0315
    10.2487  10.3822  10.4076  10.4155  10.4764  10.4936  10.7124  10.7744
    10.8378  10.8427  11.0867  11.0950  11.4774  11.5212  11.5358  11.6737
    11.7539  11.7954  11.8394  12.0632  12.2353  12.2530  12.4684  12.4731
    12.6155  12.6359  12.7835  12.9384  13.1036  13.1340  13.1666  13.2018
    13.2801  13.3980  13.6224  13.6554  13.6668  13.6916  13.7171  13.9112

          k = 0.0442 0.0765 0.0000 ( 34881 PWs)   bands (ev):

   -17.8551 -17.7468 -17.6390 -17.0646 -16.9846 -16.7321 -16.6811 -16.6649
    -5.2495  -5.0544  -5.0392  -5.0277  -4.9517  -4.9243  -4.6107  -4.3066
    -4.2506  -4.2464  -4.1577  -4.1154  -3.7375  -3.5559  -3.4769  -3.2497
    -3.1608  -3.1401  -3.0035  -2.9942  -2.9604  -2.9365  -2.8372  -2.8015
    -2.7656  -2.7009  -2.5889  -2.5112  -2.3638  -2.3619  -2.0101  -1.9944
    -1.9693  -1.6010  -1.5842  -1.5624  -1.5466  -1.5314  -1.5203  -1.4606
    -1.4575  -1.4531  -1.3672  -1.3178  -1.2267  -1.1658  -1.0642  -1.0560
    -1.0369  -1.0252  -0.9931  -0.9185  -0.9070  -0.8984  -0.8864  -0.8539
    -0.7431  -0.7379  -0.6600  -0.6492  -0.6256  -0.5918  -0.5877  -0.5750
    -0.5367  -0.4862  -0.4555  -0.3813  -0.3377  -0.3139  -0.2979  -0.2678
    -0.2512  -0.2466  -0.2376  -0.2121  -0.1455  -0.1194  -0.1179  -0.0949
    -0.0624  -0.0609   0.0047   0.0084   0.0566   0.0862   0.1357   0.1413
     0.1421   0.1437   0.1492   0.1547   0.2819   0.2889   0.3102   0.3118
     0.3278   0.3297   0.3491   0.3619   0.4807   0.5082   0.5150   0.5199
     0.5227   0.5714   0.5830   0.5888   0.5898   0.6037   0.6105   0.6560
     0.6820   0.7082   0.7196   0.7320   0.7350   0.7658   0.7781   0.8155
     0.8560   0.8961   0.9086   0.9358   0.9668   0.9740   0.9900   0.9955
     0.9980   0.9987   1.0759   1.1380   1.1406   1.1576   1.1746   1.1992
     1.2014   1.2034   1.2051   1.2094   1.2125   1.3337   1.3357   1.3379
     1.3483   1.4066   1.4481   1.4839   1.5214   1.5226   1.5257   1.5361
     1.5409   1.5496   1.5658   1.6092   1.6228   1.6238   1.6421   1.6579
     1.7243   1.7330   1.7780   1.7818   1.7866   1.8170   1.8199   1.8223
     1.8299   1.9114   1.9220   1.9900   2.0037   2.0382   2.0836   2.0916
     2.1084   2.1180   2.1586   2.1779   2.1948   2.2067   2.2352   2.2890
     2.2954   2.3045   2.3838   2.3859   2.3896   2.4225   2.4250   2.4434
     2.4483   2.4554   2.4597   2.4823   2.4892   2.4969   2.5093   2.5179
     2.5292   2.5635   2.5694   2.5802   2.5858   2.6385   2.7065   2.7426
     2.8169   2.9096   3.0795   3.1157   3.1662   3.2072   3.2155   3.2241
     3.7078   3.7809   3.7930   4.1446   4.1546   4.1707   4.5457   4.6325
     4.6527   5.0015   5.0071   5.0165   5.2103   5.5229   5.5456   5.5495
     5.5565   5.5683   6.5400   7.7077   7.7233   7.8027   7.8097   7.8250
     7.9826   8.0935   8.1909   8.5166   8.8341   8.8517   8.9504   8.9941
     9.0265   9.1902   9.3043   9.3060   9.5183   9.5385   9.5478  10.1557
    10.3690  10.3943  10.5396  10.6939  10.7623  10.8914  11.0234  11.0568
    11.0813  11.3661  11.3806  11.5806  11.6547  11.7292  11.9821  12.0276
    12.0329  12.1914  12.2503  12.2756  12.3008  12.5397  12.5434  12.5680
    12.7769  12.8044  12.9638  13.1843  13.1914  13.1955  13.2652  13.3060
    13.3103  13.6610  13.6996  13.7730  13.8047  13.8060  13.8165  13.9933

          k = 0.0442-0.0255 0.0000 ( 34862 PWs)   bands (ev):

   -18.0250 -17.6280 -17.3834 -17.2854 -16.8816 -16.8462 -16.7515 -16.5712
    -5.7653  -5.2051  -4.9052  -4.8748  -4.8001  -4.7097  -4.5283  -4.4930
    -4.3272  -3.9909  -3.9415  -3.7982  -3.6982  -3.6617  -3.5638  -3.2362
    -3.2215  -3.1579  -3.1399  -3.0521  -2.9710  -2.8511  -2.8046  -2.7702
    -2.6972  -2.6310  -2.6056  -2.4768  -2.3544  -2.2576  -2.1012  -2.0229
    -1.9950  -1.9883  -1.9129  -1.8400  -1.6733  -1.5570  -1.5308  -1.4628
    -1.3693  -1.2962  -1.2690  -1.1686  -1.0871  -1.0744  -1.0564  -1.0369
    -1.0093  -1.0002  -0.9975  -0.8554  -0.8542  -0.8065  -0.7942  -0.7812
    -0.7612  -0.7350  -0.6990  -0.6895  -0.6330  -0.5827  -0.5739  -0.5361
    -0.5115  -0.5054  -0.4841  -0.4728  -0.4052  -0.3997  -0.3517  -0.3353
    -0.2951  -0.2549  -0.2467  -0.2067  -0.2017  -0.1357  -0.1260  -0.0858
    -0.0583  -0.0472  -0.0198   0.0222   0.0353   0.0630   0.0809   0.1227
     0.1509   0.1726   0.1910   0.2010   0.2314   0.2352   0.2935   0.3057
     0.3544   0.3863   0.4020   0.4337   0.5091   0.5241   0.5302   0.5480
     0.5640   0.5662   0.5939   0.6010   0.6241   0.6431   0.6541   0.6668
     0.6889   0.7006   0.7262   0.7450   0.7792   0.8195   0.8519   0.8550
     0.8830   0.8891   0.9015   0.9179   0.9200   0.9645   0.9857   0.9917
     1.0044   1.0096   1.0178   1.0570   1.0892   1.1074   1.1449   1.1717
     1.1772   1.1887   1.1925   1.2670   1.2873   1.3164   1.3169   1.3305
     1.3355   1.3368   1.3649   1.4801   1.4850   1.5160   1.5584   1.5771
     1.5853   1.6048   1.6157   1.6678   1.6793   1.6861   1.7269   1.7410
     1.7682   1.7859   1.8060   1.8066   1.8129   1.8247   1.8418   1.8754
     1.8805   1.9491   2.0135   2.0175   2.0303   2.0345   2.0370   2.0877
     2.1232   2.1501   2.1551   2.1625   2.1889   2.2185   2.2326   2.2671
     2.2765   2.2826   2.3203   2.3392   2.3421   2.3621   2.3877   2.4034
     2.4067   2.4154   2.4545   2.4625   2.4685   2.4819   2.4940   2.5055
     2.5116   2.5508   2.5538   2.6174   2.6374   2.6434   2.6658   2.7252
     2.7941   2.7997   2.8256   2.9259   2.9597   3.0094   3.0810   3.0916
     3.2556   3.5161   3.6142   3.6558   3.6977   3.9340   4.1463   4.7931
     4.8114   4.9880   5.2712   5.4136   5.5345   5.6636   5.6847   6.1121
     6.3466   6.8506   7.1050   7.2579   7.3198   7.8554   8.1645   8.1954
     8.2560   8.4602   8.4917   8.5250   8.8166   9.0382   9.1849   9.2138
     9.4297   9.4973   9.5097   9.5344   9.5442   9.6375   9.6898  10.0307
    10.2490  10.3811  10.4069  10.4132  10.4757  10.4925  10.7130  10.7743
    10.8377  10.8467  11.0867  11.0942  11.4769  11.5202  11.5348  11.6735
    11.7539  11.7946  11.8388  12.0624  12.2345  12.2510  12.4692  12.4734
    12.6155  12.6368  12.7831  12.9391  13.1027  13.1340  13.1687  13.2008
    13.2786  13.3995  13.6230  13.6553  13.6692  13.6934  13.7198  13.9120

     the Fermi energy is     2.3125 ev

!    total energy              =   -3892.01949412 Ry
     Harris-Foulkes estimate   =   -3892.01950414 Ry
     estimated scf accuracy    <       0.00000059 Ry

     The total energy is the sum of the following terms:

     one-electron contribution =  -26502.32591852 Ry
     hartree contribution      =   13672.74857903 Ry
     xc contribution           =   -1576.30106597 Ry
     ewald contribution        =   10514.02046979 Ry
     electric field correction =       0.00156007 Ry
     smearing contrib. (-TS)   =      -0.16311851 Ry

     total magnetization       =    16.80 Bohr mag/cell
     absolute magnetization    =    19.52 Bohr mag/cell

     convergence has been achieved in  17 iterations

     Forces acting on atoms (Ry/au):


     negative rho (up, down):  3.685E-04 3.316E-04
     atom    1 type  1   force =    -0.00009203    0.00010332    0.00395136
     atom    2 type  1   force =     0.00010317   -0.00126298   -0.00409931
     atom    3 type  1   force =     0.00013148    0.00045298    0.00059242
     atom    4 type  1   force =     0.00030768    0.00005592    0.00069933
     atom    5 type  1   force =    -0.00007027   -0.00004874    0.00366015
     atom    6 type  1   force =    -0.00004277   -0.00037082   -0.00630548
     atom    7 type  1   force =     0.00023395    0.00008287    0.00041606
     atom    8 type  1   force =     0.00042398    0.00023409    0.00052681
     atom    9 type  1   force =     0.00009007   -0.00014021    0.00394241
     atom   10 type  1   force =    -0.00069899    0.00016092   -0.00395680
     atom   11 type  1   force =     0.00019588    0.00010171    0.00022882
     atom   12 type  1   force =    -0.00041016    0.00041226    0.00034864
     atom   13 type  1   force =     0.00011657    0.00001635    0.00393251
     atom   14 type  1   force =     0.00084542    0.00001437   -0.00544511
     atom   15 type  1   force =    -0.00009466    0.00012235    0.00056988
     atom   16 type  1   force =    -0.00010279    0.00065730   -0.00046747
     atom   17 type  1   force =    -0.00005818    0.00030046    0.00409199
     atom   18 type  1   force =     0.00021607   -0.00040910   -0.00639434
     atom   19 type  1   force =    -0.00031816    0.00014022    0.00072832
     atom   20 type  1   force =    -0.00052216    0.00100480    0.00123309
     atom   21 type  1   force =     0.00024879   -0.00021224    0.00412459
     atom   22 type  1   force =     0.00004361   -0.00016998   -0.00617673
     atom   23 type  1   force =     0.00006352   -0.00005170    0.00044660
     atom   24 type  1   force =     0.00003863    0.00056141    0.00022449
     atom   25 type  1   force =    -0.00002737    0.00008749    0.00364705
     atom   26 type  1   force =    -0.00064190    0.00002887   -0.00549252
     atom   27 type  1   force =    -0.00010588    0.00005705    0.00043593
     atom   28 type  1   force =     0.00018568   -0.00010859   -0.00018982
     atom   29 type  1   force =     0.00014683   -0.00011759    0.00365766
     atom   30 type  1   force =     0.00017706   -0.00119159   -0.00549600
     atom   31 type  1   force =    -0.00006802   -0.00007047    0.00050039
     atom   32 type  1   force =     0.00007875   -0.00083516    0.00048311
     atom   33 type  1   force =    -0.00033011   -0.00018987    0.00411319
     atom   34 type  1   force =     0.00097953    0.00017393   -0.00406632
     atom   35 type  1   force =    -0.00045512    0.00018925    0.00054679
     atom   36 type  1   force =     0.00038692    0.00034907   -0.00001731
     atom   37 type  2   force =    -0.00029821   -0.00037829    0.00068699
     atom   38 type  2   force =    -0.00019156   -0.00009259    0.00104153
     atom   39 type  2   force =    -0.00047391   -0.00037837    0.00103511
     atom   40 type  2   force =     0.00024866   -0.00048714   -0.00050334
     atom   41 type  2   force =    -0.00005421   -0.00000503    0.00126357
     atom   42 type  2   force =     0.00002833    0.00032927   -0.00025740
     atom   43 type  2   force =     0.00046612    0.00041528    0.00070556
     atom   44 type  2   force =    -0.00070025    0.00046894    0.00103359

     Total force =     0.020489     Total SCF correction =     0.004264
     SCF correction compared to forces is large: reduce conv_thr to get better values
 !ASE

     Writing output data file calc.save
 
     init_run     :     28.75s CPU     33.75s WALL (       1 calls)
     electrons    :  30024.01s CPU  34666.51s WALL (      14 calls)
     update_pot   :     30.01s CPU     31.85s WALL (      13 calls)
     forces       :    674.76s CPU    700.60s WALL (      14 calls)

     Called by init_run:
     wfcinit      :     19.40s CPU     23.61s WALL (       1 calls)
     potinit      :      0.91s CPU      0.98s WALL (       1 calls)

     Called by electrons:
     c_bands      :  20249.19s CPU  23805.72s WALL (     420 calls)
     sum_band     :   7115.77s CPU   8016.22s WALL (     420 calls)
     v_of_rho     :    145.44s CPU    166.84s WALL (     434 calls)
     newd         :   2555.57s CPU   2714.76s WALL (     434 calls)
     mix_rho      :     28.46s CPU     34.77s WALL (     420 calls)

     Called by c_bands:
     init_us_2    :    103.81s CPU    110.09s WALL (    8550 calls)
     cegterg      :  19661.53s CPU  23192.13s WALL (    4200 calls)

     Called by *egterg:
     h_psi        :   9874.25s CPU  12625.02s WALL (   11125 calls)
     s_psi        :   1658.92s CPU   1722.01s WALL (   11125 calls)
     g_psi        :     39.07s CPU     40.03s WALL (    6915 calls)
     cdiaghg      :   3519.58s CPU   3620.87s WALL (   10985 calls)

     Called by h_psi:
     add_vuspsi   :   1673.09s CPU   1737.12s WALL (   11125 calls)

     General routines
     calbec       :   2612.00s CPU   2681.70s WALL (   15465 calls)
     fft          :    129.16s CPU    152.91s WALL (   13580 calls)
     ffts         :      2.33s CPU      3.08s WALL (    1708 calls)
     fftw         :   5308.10s CPU   8532.07s WALL ( 6781156 calls)
     interpolate  :     16.46s CPU     23.71s WALL (    1708 calls)
     davcio       :      0.00s CPU      0.17s WALL (      10 calls)
 
     Parallel routines
     fft_scatter  :   3061.83s CPU   4887.59s WALL ( 6796444 calls)
 
     PWSCF        :     8h33m CPU        9h52m WALL

 
   This run was terminated on:   6:58: 9  24Apr2017            

=------------------------------------------------------------------------------=
   JOB DONE.
=------------------------------------------------------------------------------=
