  python dir          : /home/vossj/suncat/lib/python2.7/site-packages/espresso
  espresso dir        : /home/vossj/suncat/esdld/espresso-dynpy-beef/bin
  pseudo dir          : /home/alatimer/bin/psp/esp_psp_w_gbrvRu/
  ase-espresso py git : ffa2778-git



     Program PWSCF v.5.1rc2 (svn rev. ) starts on 10Mar2017 at 15: 9:36 

     This program is part of the open-source Quantum ESPRESSO suite
     for quantum simulation of materials; please cite
         "P. Giannozzi et al., J. Phys.:Condens. Matter 21 395502 (2009);
          URL http://www.quantum-espresso.org", 
     in publications or presentations arising from this work. More details at
     http://www.quantum-espresso.org/quote

     Parallel version (MPI), running on    16 processors
     R & G space division:  proc/nbgrp/npool/nimage =      16
     Reading input from pw.inp
     Message from routine read_cards :
     DEPRECATED: no units specified in CELL_PARAMETERS card

     Current dimensions of program PWSCF are:
     Max number of different atomic species (ntypx) = 10
     Max number of k-points (npk) =  40000
     Max angular momentum in pseudopotentials (lmaxx) =  3
     Presently no symmetry can be used with electric field


     IMPORTANT: XC functional enforced from input :
     Exchange-correlation      = RPBE ( 1  4 28  4 0)
     Any further DFT definition will be discarded
     Please, verify this is what you really want

               file Ni.UPF: wavefunction(s)  3D renormalized

     Subspace diagonalization in iterative solution of the eigenvalue problem:
     a serial algorithm will be used

 
     Parallelization info
     --------------------
     sticks:   dense  smooth     PW     G-vecs:    dense   smooth      PW
     Min         386     154     42                68872    17389    2480
     Max         387     155     43                68885    17439    2491
     Sum        6181    2479    673              1102011   278611   39737
 
     Generating pointlists ...
     new r_m :   0.4125 (alat units)  0.7795 (a.u.) for type    1
     new r_m :   0.4125 (alat units)  0.7795 (a.u.) for type    2


     bravais-lattice index     =            0
     lattice parameter (alat)  =       1.8897  a.u.
     unit-cell volume          =    7046.4111 (a.u.)^3
     number of atoms/cell      =           37
     number of atomic types    =            2
     number of electrons       =       366.00
     number of Kohn-Sham states=          283
     kinetic-energy cutoff     =      44.0992  Ry
     charge density cutoff     =     440.9919  Ry
     convergence threshold     =      7.3E-07
     mixing beta               =       0.1000
     number of iterations used =           10  plain     mixing
     Exchange-correlation      = RPBE ( 1  4 28  4 0)
     nstep                     =           50


     celldm(1)=   1.889726  celldm(2)=   0.000000  celldm(3)=   0.000000
     celldm(4)=   0.000000  celldm(5)=   0.000000  celldm(6)=   0.000000

     crystal axes: (cart. coord. in units of alat)
               a(1) = (   7.548011   0.000000   0.000000 )  
               a(2) = (  -3.774005   6.536769   0.000000 )  
               a(3) = (   0.000000   0.000000  21.162925 )  

     reciprocal axes: (cart. coord. in units 2 pi/alat)
               b(1) = (  0.132485  0.076490  0.000000 )  
               b(2) = (  0.000000  0.152981  0.000000 )  
               b(3) = (  0.000000  0.000000  0.047252 )  


     PseudoPot. # 1 for Ni read from file:
     /home/alatimer/bin/psp/esp_psp_w_gbrvRu/Ni.UPF
     MD5 check sum: 8b2449ee0060d9c33484ccd47bb60870
     Pseudo is Ultrasoft + core correction, Zval = 10.0
     Generated using "atomic" code by A. Dal Corso  v.5.0.2 svn rev. 9415
     Using radial grid of 1195 points,  6 beta functions with: 
                l(1) =   0
                l(2) =   0
                l(3) =   1
                l(4) =   1
                l(5) =   2
                l(6) =   2
     Q(r) pseudized with 0 coefficients 


     PseudoPot. # 2 for  O read from file:
     /home/alatimer/bin/psp/esp_psp_w_gbrvRu/O.UPF
     MD5 check sum: e057bbcf3229fb5d8c36c0c92f9568b4
     Pseudo is Ultrasoft + core correction, Zval =  6.0
     Generated using "atomic" code by A. Dal Corso  v.5.0.2 svn rev. 9415
     Using radial grid of 1095 points,  4 beta functions with: 
                l(1) =   0
                l(2) =   0
                l(3) =   1
                l(4) =   1
     Q(r) pseudized with 0 coefficients 


     atomic species   valence    mass     pseudopotential
        Ni1           10.00    58.69340     Ni( 1.00)
        O1             6.00    15.99940      O( 1.00)

     Starting magnetic structure 
     atomic species   magnetization
        Ni1          0.300
        O1           0.500

     No symmetry found



   Cartesian axes

     site n.     atom                  positions (alat units)
         1           Ni1 tau(   1) = (   0.0000000   0.0000000   7.5000000  )
         2           Ni1 tau(   2) = (   1.2580018   0.7263077   9.5543084  )
         3           Ni1 tau(   3) = (   0.0000000   1.4526154  11.6086168  )
         4           Ni1 tau(   4) = (   1.2580018   2.1789231  13.6629252  )
         5           Ni1 tau(   5) = (  -1.2580018   2.1789231   7.5000000  )
         6           Ni1 tau(   6) = (   0.0000000   2.9052308   9.5543084  )
         7           Ni1 tau(   7) = (  -1.2580018   3.6315385  11.6086168  )
         8           Ni1 tau(   8) = (  -0.0000000   4.3578462  13.6629252  )
         9           Ni1 tau(   9) = (  -2.5160037   4.3578462   7.5000000  )
        10           Ni1 tau(  10) = (  -1.2580018   5.0841539   9.5543084  )
        11           Ni1 tau(  11) = (  -2.5160037   5.8104616  11.6086168  )
        12           Ni1 tau(  12) = (  -1.2580018   6.5367693  13.6629252  )
        13           Ni1 tau(  13) = (   2.5160037   0.0000000   7.5000000  )
        14           Ni1 tau(  14) = (   3.7740055   0.7263077   9.5543084  )
        15           Ni1 tau(  15) = (   2.5160037   1.4526154  11.6086168  )
        16           Ni1 tau(  16) = (   3.7740055   2.1789231  13.6629252  )
        17           Ni1 tau(  17) = (   1.2580018   2.1789231   7.5000000  )
        18           Ni1 tau(  18) = (   2.5160037   2.9052308   9.5543084  )
        19           Ni1 tau(  19) = (   1.2580018   3.6315385  11.6086168  )
        20           Ni1 tau(  20) = (   2.5160037   4.3578462  13.6629252  )
        21           Ni1 tau(  21) = (  -0.0000000   4.3578462   7.5000000  )
        22           Ni1 tau(  22) = (   1.2580018   5.0841539   9.5543084  )
        23           Ni1 tau(  23) = (  -0.0000000   5.8104616  11.6086168  )
        24           Ni1 tau(  24) = (   1.2580018   6.5367693  13.6629252  )
        25           Ni1 tau(  25) = (   5.0320073   0.0000000   7.5000000  )
        26           Ni1 tau(  26) = (   6.2900092   0.7263077   9.5543084  )
        27           Ni1 tau(  27) = (   5.0320073   1.4526154  11.6086168  )
        28           Ni1 tau(  28) = (   6.2900092   2.1789231  13.6629252  )
        29           Ni1 tau(  29) = (   3.7740055   2.1789231   7.5000000  )
        30           Ni1 tau(  30) = (   5.0320073   2.9052308   9.5543084  )
        31           Ni1 tau(  31) = (   3.7740055   3.6315385  11.6086168  )
        32           Ni1 tau(  32) = (   5.0320073   4.3578462  13.6629252  )
        33           Ni1 tau(  33) = (   2.5160037   4.3578462   7.5000000  )
        34           Ni1 tau(  34) = (   3.7740055   5.0841539   9.5543084  )
        35           Ni1 tau(  35) = (   2.5160037   5.8104616  11.6086168  )
        36           Ni1 tau(  36) = (   3.7740055   6.5367693  13.6629252  )
        37           O1  tau(  37) = (   1.2580018   3.6315385  14.9629252  )

     number of k points=    10  Fermi-Dirac smearing, width (Ry)=  0.0073
                       cart. coord. in units 2pi/alat
        k(    1) = (   0.0000000   0.0000000   0.0000000), wk =   0.1111111
        k(    2) = (   0.0000000   0.0509936   0.0000000), wk =   0.2222222
        k(    3) = (   0.0441617   0.0254968   0.0000000), wk =   0.2222222
        k(    4) = (   0.0441617   0.0764904   0.0000000), wk =   0.2222222
        k(    5) = (   0.0441617  -0.0254968   0.0000000), wk =   0.2222222
        k(    6) = (   0.0000000   0.0000000   0.0000000), wk =   0.1111111
        k(    7) = (   0.0000000   0.0509936   0.0000000), wk =   0.2222222
        k(    8) = (   0.0441617   0.0254968   0.0000000), wk =   0.2222222
        k(    9) = (   0.0441617   0.0764904   0.0000000), wk =   0.2222222
        k(   10) = (   0.0441617  -0.0254968   0.0000000), wk =   0.2222222

     Dense  grid:  1102011 G-vectors     FFT dimensions: (  96,  96, 270)

     Smooth grid:   278611 G-vectors     FFT dimensions: (  64,  64, 180)

     Largest allocated arrays     est. size (Mb)     dimensions
        Kohn-Sham Wavefunctions         9.43 Mb     (    2183,  283)
        NL pseudopotentials            21.85 Mb     (    2183,  656)
        Each V/rho on FFT grid          4.78 Mb     (  156672,   2)
        Each G-vector array             0.53 Mb     (   68874)
        G-vector shells                 0.19 Mb     (   24563)
     Largest temporary arrays     est. size (Mb)     dimensions
        Auxiliary wavefunctions        37.71 Mb     (    2183, 1132)
        Each subspace H/S matrix       19.55 Mb     (    1132, 1132)
        Each <psi_i|beta_j> matrix      2.83 Mb     (     656,  283)
        Arrays for rho mixing          23.91 Mb     (  156672,   10)

     Check: negative/imaginary core charge=   -0.000003    0.000000

     Initial potential from superposition of free atoms
     Check: negative starting charge=(component1):   -0.000377
     Check: negative starting charge=(component2):   -0.000198

     starting charge  365.99096, renormalised to  366.00000

     negative rho (up, down):  3.771E-04 1.980E-04
 
     Adding external electric field

     Computed dipole along edir(3) : 
        Dipole               -0.0012 Ry au,         -0.0031 Debye
        Dipole field         -0.0000 Ry au
 
        Potential amp.        0.0002 Ry
        Total length         38.9923 bohr
 
 
     Adding external electric field

     Computed dipole along edir(3) : 
        Dipole               -0.0012 Ry au,         -0.0031 Debye
        Dipole field         -0.0000 Ry au
 
        Potential amp.        0.0002 Ry
        Total length         38.9923 bohr
 
     Starting wfc are  328 randomized atomic wfcs

     total cpu time spent up to now is       32.1 secs

     Self-consistent Calculation

     iteration #  1     ecut=    44.10 Ry     beta=0.10
     Davidson diagonalization with overlap
     ethr =  1.00E-02,  avg # of iterations =  7.1

     negative rho (up, down):  3.417E-04 1.743E-04
 
     Adding external electric field

     Computed dipole along edir(3) : 
        Dipole               -0.0528 Ry au,         -0.1343 Debye
        Dipole field         -0.0001 Ry au
 
        Potential amp.        0.0073 Ry
        Total length         38.9923 bohr
 
 
     Adding external electric field

     Computed dipole along edir(3) : 
        Dipole               -0.0528 Ry au,         -0.1343 Debye
        Dipole field         -0.0001 Ry au
 
        Potential amp.        0.0073 Ry
        Total length         38.9923 bohr
 
 
     Magnetic moment per site:
     atom:    1    charge:    3.9491    magn:    1.1260    constr:    0.0000
     atom:    2    charge:    3.9681    magn:    1.1116    constr:    0.0000
     atom:    3    charge:    3.9687    magn:    1.1109    constr:    0.0000
     atom:    4    charge:    3.9441    magn:    1.1332    constr:    0.0000
     atom:    5    charge:    3.9489    magn:    1.1263    constr:    0.0000
     atom:    6    charge:    3.9681    magn:    1.1118    constr:    0.0000
     atom:    7    charge:    3.9687    magn:    1.1109    constr:    0.0000
     atom:    8    charge:    3.9441    magn:    1.1332    constr:    0.0000
     atom:    9    charge:    3.9491    magn:    1.1260    constr:    0.0000
     atom:   10    charge:    3.9681    magn:    1.1116    constr:    0.0000
     atom:   11    charge:    3.9684    magn:    1.1118    constr:    0.0000
     atom:   12    charge:    3.9488    magn:    1.1268    constr:    0.0000
     atom:   13    charge:    3.9491    magn:    1.1260    constr:    0.0000
     atom:   14    charge:    3.9682    magn:    1.1112    constr:    0.0000
     atom:   15    charge:    3.9687    magn:    1.1109    constr:    0.0000
     atom:   16    charge:    3.9494    magn:    1.1267    constr:    0.0000
     atom:   17    charge:    3.9493    magn:    1.1262    constr:    0.0000
     atom:   18    charge:    3.9681    magn:    1.1118    constr:    0.0000
     atom:   19    charge:    3.9685    magn:    1.1121    constr:    0.0000
     atom:   20    charge:    3.9441    magn:    1.1332    constr:    0.0000
     atom:   21    charge:    3.9493    magn:    1.1262    constr:    0.0000
     atom:   22    charge:    3.9681    magn:    1.1118    constr:    0.0000
     atom:   23    charge:    3.9687    magn:    1.1109    constr:    0.0000
     atom:   24    charge:    3.9494    magn:    1.1267    constr:    0.0000
     atom:   25    charge:    3.9489    magn:    1.1263    constr:    0.0000
     atom:   26    charge:    3.9682    magn:    1.1112    constr:    0.0000
     atom:   27    charge:    3.9685    magn:    1.1116    constr:    0.0000
     atom:   28    charge:    3.9494    magn:    1.1267    constr:    0.0000
     atom:   29    charge:    3.9489    magn:    1.1264    constr:    0.0000
     atom:   30    charge:    3.9682    magn:    1.1112    constr:    0.0000
     atom:   31    charge:    3.9687    magn:    1.1109    constr:    0.0000
     atom:   32    charge:    3.9488    magn:    1.1268    constr:    0.0000
     atom:   33    charge:    3.9493    magn:    1.1262    constr:    0.0000
     atom:   34    charge:    3.9681    magn:    1.1116    constr:    0.0000
     atom:   35    charge:    3.9687    magn:    1.1109    constr:    0.0000
     atom:   36    charge:    3.9489    magn:    1.1269    constr:    0.0000
     atom:   37    charge:    2.0061    magn:    0.9456    constr:    0.0000

     total cpu time spent up to now is      156.6 secs

     total energy              =   -3654.03917701 Ry
     Harris-Foulkes estimate   =   -3654.91043452 Ry
     estimated scf accuracy    <       9.66731461 Ry

     total magnetization       =    37.64 Bohr mag/cell
     absolute magnetization    =    37.70 Bohr mag/cell

     iteration #  2     ecut=    44.10 Ry     beta=0.10
     Davidson diagonalization with overlap
     ethr =  2.64E-03,  avg # of iterations =  2.5

     negative rho (up, down):  3.386E-04 1.977E-04
 
     Adding external electric field

     Computed dipole along edir(3) : 
        Dipole               -0.1472 Ry au,         -0.3742 Debye
        Dipole field         -0.0003 Ry au
 
        Potential amp.        0.0205 Ry
        Total length         38.9923 bohr
 
 
     Adding external electric field

     Computed dipole along edir(3) : 
        Dipole               -0.1472 Ry au,         -0.3742 Debye
        Dipole field         -0.0003 Ry au
 
        Potential amp.        0.0205 Ry
        Total length         38.9923 bohr
 
 
     Magnetic moment per site:
     atom:    1    charge:    3.9627    magn:    1.1028    constr:    0.0000
     atom:    2    charge:    3.9565    magn:    1.1075    constr:    0.0000
     atom:    3    charge:    3.9566    magn:    1.1071    constr:    0.0000
     atom:    4    charge:    3.9577    magn:    1.1110    constr:    0.0000
     atom:    5    charge:    3.9625    magn:    1.1031    constr:    0.0000
     atom:    6    charge:    3.9565    magn:    1.1077    constr:    0.0000
     atom:    7    charge:    3.9566    magn:    1.1071    constr:    0.0000
     atom:    8    charge:    3.9577    magn:    1.1110    constr:    0.0000
     atom:    9    charge:    3.9627    magn:    1.1028    constr:    0.0000
     atom:   10    charge:    3.9565    magn:    1.1075    constr:    0.0000
     atom:   11    charge:    3.9567    magn:    1.1081    constr:    0.0000
     atom:   12    charge:    3.9627    magn:    1.1034    constr:    0.0000
     atom:   13    charge:    3.9627    magn:    1.1028    constr:    0.0000
     atom:   14    charge:    3.9565    magn:    1.1071    constr:    0.0000
     atom:   15    charge:    3.9566    magn:    1.1071    constr:    0.0000
     atom:   16    charge:    3.9631    magn:    1.1034    constr:    0.0000
     atom:   17    charge:    3.9629    magn:    1.1030    constr:    0.0000
     atom:   18    charge:    3.9565    magn:    1.1077    constr:    0.0000
     atom:   19    charge:    3.9572    magn:    1.1078    constr:    0.0000
     atom:   20    charge:    3.9577    magn:    1.1110    constr:    0.0000
     atom:   21    charge:    3.9629    magn:    1.1030    constr:    0.0000
     atom:   22    charge:    3.9565    magn:    1.1077    constr:    0.0000
     atom:   23    charge:    3.9566    magn:    1.1071    constr:    0.0000
     atom:   24    charge:    3.9631    magn:    1.1034    constr:    0.0000
     atom:   25    charge:    3.9625    magn:    1.1031    constr:    0.0000
     atom:   26    charge:    3.9565    magn:    1.1071    constr:    0.0000
     atom:   27    charge:    3.9562    magn:    1.1084    constr:    0.0000
     atom:   28    charge:    3.9631    magn:    1.1034    constr:    0.0000
     atom:   29    charge:    3.9625    magn:    1.1031    constr:    0.0000
     atom:   30    charge:    3.9565    magn:    1.1071    constr:    0.0000
     atom:   31    charge:    3.9566    magn:    1.1071    constr:    0.0000
     atom:   32    charge:    3.9627    magn:    1.1034    constr:    0.0000
     atom:   33    charge:    3.9629    magn:    1.1030    constr:    0.0000
     atom:   34    charge:    3.9565    magn:    1.1075    constr:    0.0000
     atom:   35    charge:    3.9566    magn:    1.1071    constr:    0.0000
     atom:   36    charge:    3.9627    magn:    1.1034    constr:    0.0000
     atom:   37    charge:    2.0134    magn:    0.9295    constr:    0.0000

     total cpu time spent up to now is      230.9 secs

     total energy              =   -3653.96193871 Ry
     Harris-Foulkes estimate   =   -3656.17638204 Ry
     estimated scf accuracy    <      51.31507795 Ry

     total magnetization       =    39.72 Bohr mag/cell
     absolute magnetization    =    39.94 Bohr mag/cell

     iteration #  3     ecut=    44.10 Ry     beta=0.10
     Davidson diagonalization with overlap
     ethr =  2.64E-03,  avg # of iterations =  1.2

     negative rho (up, down):  3.370E-04 2.005E-04
 
     Adding external electric field

     Computed dipole along edir(3) : 
        Dipole                0.8329 Ry au,          2.1170 Debye
        Dipole field          0.0015 Ry au
 
        Potential amp.       -0.1158 Ry
        Total length         38.9923 bohr
 
 
     Adding external electric field

     Computed dipole along edir(3) : 
        Dipole                0.8329 Ry au,          2.1170 Debye
        Dipole field          0.0015 Ry au
 
        Potential amp.       -0.1158 Ry
        Total length         38.9923 bohr
 
 
     Magnetic moment per site:
     atom:    1    charge:    3.9743    magn:    1.0453    constr:    0.0000
     atom:    2    charge:    3.9596    magn:    1.0554    constr:    0.0000
     atom:    3    charge:    3.9566    magn:    1.0577    constr:    0.0000
     atom:    4    charge:    3.9640    magn:    1.0611    constr:    0.0000
     atom:    5    charge:    3.9746    magn:    1.0453    constr:    0.0000
     atom:    6    charge:    3.9593    magn:    1.0559    constr:    0.0000
     atom:    7    charge:    3.9566    magn:    1.0577    constr:    0.0000
     atom:    8    charge:    3.9640    magn:    1.0611    constr:    0.0000
     atom:    9    charge:    3.9743    magn:    1.0453    constr:    0.0000
     atom:   10    charge:    3.9596    magn:    1.0554    constr:    0.0000
     atom:   11    charge:    3.9566    magn:    1.0596    constr:    0.0000
     atom:   12    charge:    3.9638    magn:    1.0560    constr:    0.0000
     atom:   13    charge:    3.9743    magn:    1.0453    constr:    0.0000
     atom:   14    charge:    3.9596    magn:    1.0548    constr:    0.0000
     atom:   15    charge:    3.9566    magn:    1.0577    constr:    0.0000
     atom:   16    charge:    3.9640    magn:    1.0564    constr:    0.0000
     atom:   17    charge:    3.9741    magn:    1.0459    constr:    0.0000
     atom:   18    charge:    3.9593    magn:    1.0559    constr:    0.0000
     atom:   19    charge:    3.9574    magn:    1.0587    constr:    0.0000
     atom:   20    charge:    3.9640    magn:    1.0611    constr:    0.0000
     atom:   21    charge:    3.9741    magn:    1.0459    constr:    0.0000
     atom:   22    charge:    3.9593    magn:    1.0559    constr:    0.0000
     atom:   23    charge:    3.9566    magn:    1.0577    constr:    0.0000
     atom:   24    charge:    3.9640    magn:    1.0564    constr:    0.0000
     atom:   25    charge:    3.9746    magn:    1.0453    constr:    0.0000
     atom:   26    charge:    3.9596    magn:    1.0549    constr:    0.0000
     atom:   27    charge:    3.9563    magn:    1.0598    constr:    0.0000
     atom:   28    charge:    3.9640    magn:    1.0564    constr:    0.0000
     atom:   29    charge:    3.9746    magn:    1.0453    constr:    0.0000
     atom:   30    charge:    3.9596    magn:    1.0549    constr:    0.0000
     atom:   31    charge:    3.9566    magn:    1.0577    constr:    0.0000
     atom:   32    charge:    3.9638    magn:    1.0560    constr:    0.0000
     atom:   33    charge:    3.9741    magn:    1.0459    constr:    0.0000
     atom:   34    charge:    3.9596    magn:    1.0554    constr:    0.0000
     atom:   35    charge:    3.9566    magn:    1.0577    constr:    0.0000
     atom:   36    charge:    3.9638    magn:    1.0560    constr:    0.0000
     atom:   37    charge:    2.0249    magn:    0.8791    constr:    0.0000

     total cpu time spent up to now is      299.7 secs

     total energy              =   -3655.00459630 Ry
     Harris-Foulkes estimate   =   -3654.96845868 Ry
     estimated scf accuracy    <       3.49243690 Ry

     total magnetization       =    38.53 Bohr mag/cell
     absolute magnetization    =    38.67 Bohr mag/cell

     iteration #  4     ecut=    44.10 Ry     beta=0.10
     Davidson diagonalization with overlap
     ethr =  9.54E-04,  avg # of iterations =  5.1

     negative rho (up, down):  3.356E-04 2.080E-04
 
     Adding external electric field

     Computed dipole along edir(3) : 
        Dipole               -0.2324 Ry au,         -0.5908 Debye
        Dipole field         -0.0004 Ry au
 
        Potential amp.        0.0323 Ry
        Total length         38.9923 bohr
 
 
     Adding external electric field

     Computed dipole along edir(3) : 
        Dipole               -0.2324 Ry au,         -0.5908 Debye
        Dipole field         -0.0004 Ry au
 
        Potential amp.        0.0323 Ry
        Total length         38.9923 bohr
 
 
     Magnetic moment per site:
     atom:    1    charge:    3.9794    magn:    0.9802    constr:    0.0000
     atom:    2    charge:    3.9607    magn:    0.9911    constr:    0.0000
     atom:    3    charge:    3.9604    magn:    0.9910    constr:    0.0000
     atom:    4    charge:    3.9784    magn:    0.9917    constr:    0.0000
     atom:    5    charge:    3.9802    magn:    0.9799    constr:    0.0000
     atom:    6    charge:    3.9601    magn:    0.9919    constr:    0.0000
     atom:    7    charge:    3.9604    magn:    0.9910    constr:    0.0000
     atom:    8    charge:    3.9784    magn:    0.9917    constr:    0.0000
     atom:    9    charge:    3.9794    magn:    0.9802    constr:    0.0000
     atom:   10    charge:    3.9607    magn:    0.9911    constr:    0.0000
     atom:   11    charge:    3.9604    magn:    0.9937    constr:    0.0000
     atom:   12    charge:    3.9734    magn:    0.9882    constr:    0.0000
     atom:   13    charge:    3.9794    magn:    0.9802    constr:    0.0000
     atom:   14    charge:    3.9608    magn:    0.9903    constr:    0.0000
     atom:   15    charge:    3.9604    magn:    0.9909    constr:    0.0000
     atom:   16    charge:    3.9734    magn:    0.9890    constr:    0.0000
     atom:   17    charge:    3.9790    magn:    0.9812    constr:    0.0000
     atom:   18    charge:    3.9601    magn:    0.9919    constr:    0.0000
     atom:   19    charge:    3.9615    magn:    0.9922    constr:    0.0000
     atom:   20    charge:    3.9784    magn:    0.9917    constr:    0.0000
     atom:   21    charge:    3.9790    magn:    0.9811    constr:    0.0000
     atom:   22    charge:    3.9601    magn:    0.9919    constr:    0.0000
     atom:   23    charge:    3.9604    magn:    0.9910    constr:    0.0000
     atom:   24    charge:    3.9733    magn:    0.9891    constr:    0.0000
     atom:   25    charge:    3.9802    magn:    0.9799    constr:    0.0000
     atom:   26    charge:    3.9608    magn:    0.9903    constr:    0.0000
     atom:   27    charge:    3.9605    magn:    0.9939    constr:    0.0000
     atom:   28    charge:    3.9733    magn:    0.9891    constr:    0.0000
     atom:   29    charge:    3.9802    magn:    0.9799    constr:    0.0000
     atom:   30    charge:    3.9608    magn:    0.9903    constr:    0.0000
     atom:   31    charge:    3.9604    magn:    0.9909    constr:    0.0000
     atom:   32    charge:    3.9734    magn:    0.9882    constr:    0.0000
     atom:   33    charge:    3.9790    magn:    0.9811    constr:    0.0000
     atom:   34    charge:    3.9607    magn:    0.9911    constr:    0.0000
     atom:   35    charge:    3.9604    magn:    0.9909    constr:    0.0000
     atom:   36    charge:    3.9734    magn:    0.9883    constr:    0.0000
     atom:   37    charge:    2.0415    magn:    0.8131    constr:    0.0000

     total cpu time spent up to now is      388.0 secs

     total energy              =   -3654.60222240 Ry
     Harris-Foulkes estimate   =   -3656.30827677 Ry
     estimated scf accuracy    <     173.14130645 Ry

     total magnetization       =    39.12 Bohr mag/cell
     absolute magnetization    =    39.39 Bohr mag/cell

     iteration #  5     ecut=    44.10 Ry     beta=0.10
     Davidson diagonalization with overlap
     ethr =  9.54E-04,  avg # of iterations =  2.8

     negative rho (up, down):  3.338E-04 2.113E-04
 
     Adding external electric field

     Computed dipole along edir(3) : 
        Dipole               -0.2216 Ry au,         -0.5632 Debye
        Dipole field         -0.0004 Ry au
 
        Potential amp.        0.0308 Ry
        Total length         38.9923 bohr
 
 
     Adding external electric field

     Computed dipole along edir(3) : 
        Dipole               -0.2216 Ry au,         -0.5632 Debye
        Dipole field         -0.0004 Ry au
 
        Potential amp.        0.0308 Ry
        Total length         38.9923 bohr
 
 
     Magnetic moment per site:
     atom:    1    charge:    3.9797    magn:    0.9484    constr:    0.0000
     atom:    2    charge:    3.9612    magn:    0.9597    constr:    0.0000
     atom:    3    charge:    3.9612    magn:    0.9591    constr:    0.0000
     atom:    4    charge:    3.9688    magn:    0.9691    constr:    0.0000
     atom:    5    charge:    3.9794    magn:    0.9490    constr:    0.0000
     atom:    6    charge:    3.9610    magn:    0.9603    constr:    0.0000
     atom:    7    charge:    3.9612    magn:    0.9591    constr:    0.0000
     atom:    8    charge:    3.9688    magn:    0.9691    constr:    0.0000
     atom:    9    charge:    3.9797    magn:    0.9484    constr:    0.0000
     atom:   10    charge:    3.9612    magn:    0.9597    constr:    0.0000
     atom:   11    charge:    3.9627    magn:    0.9611    constr:    0.0000
     atom:   12    charge:    3.9791    magn:    0.9528    constr:    0.0000
     atom:   13    charge:    3.9797    magn:    0.9484    constr:    0.0000
     atom:   14    charge:    3.9613    magn:    0.9587    constr:    0.0000
     atom:   15    charge:    3.9612    magn:    0.9591    constr:    0.0000
     atom:   16    charge:    3.9800    magn:    0.9530    constr:    0.0000
     atom:   17    charge:    3.9800    magn:    0.9488    constr:    0.0000
     atom:   18    charge:    3.9611    magn:    0.9603    constr:    0.0000
     atom:   19    charge:    3.9589    magn:    0.9638    constr:    0.0000
     atom:   20    charge:    3.9687    magn:    0.9691    constr:    0.0000
     atom:   21    charge:    3.9800    magn:    0.9488    constr:    0.0000
     atom:   22    charge:    3.9610    magn:    0.9603    constr:    0.0000
     atom:   23    charge:    3.9612    magn:    0.9591    constr:    0.0000
     atom:   24    charge:    3.9800    magn:    0.9530    constr:    0.0000
     atom:   25    charge:    3.9794    magn:    0.9490    constr:    0.0000
     atom:   26    charge:    3.9613    magn:    0.9587    constr:    0.0000
     atom:   27    charge:    3.9627    magn:    0.9614    constr:    0.0000
     atom:   28    charge:    3.9800    magn:    0.9530    constr:    0.0000
     atom:   29    charge:    3.9794    magn:    0.9490    constr:    0.0000
     atom:   30    charge:    3.9613    magn:    0.9587    constr:    0.0000
     atom:   31    charge:    3.9612    magn:    0.9591    constr:    0.0000
     atom:   32    charge:    3.9791    magn:    0.9528    constr:    0.0000
     atom:   33    charge:    3.9800    magn:    0.9488    constr:    0.0000
     atom:   34    charge:    3.9612    magn:    0.9597    constr:    0.0000
     atom:   35    charge:    3.9612    magn:    0.9591    constr:    0.0000
     atom:   36    charge:    3.9791    magn:    0.9528    constr:    0.0000
     atom:   37    charge:    2.0458    magn:    0.7804    constr:    0.0000

     total cpu time spent up to now is      464.2 secs

     total energy              =   -3655.52144648 Ry
     Harris-Foulkes estimate   =   -3655.46599473 Ry
     estimated scf accuracy    <       2.60379662 Ry

     total magnetization       =    38.00 Bohr mag/cell
     absolute magnetization    =    38.34 Bohr mag/cell

     iteration #  6     ecut=    44.10 Ry     beta=0.10
     Davidson diagonalization with overlap
     ethr =  7.11E-04,  avg # of iterations =  1.5

     negative rho (up, down):  3.348E-04 2.154E-04
 
     Adding external electric field

     Computed dipole along edir(3) : 
        Dipole               -0.2203 Ry au,         -0.5600 Debye
        Dipole field         -0.0004 Ry au
 
        Potential amp.        0.0306 Ry
        Total length         38.9923 bohr
 
 
     Adding external electric field

     Computed dipole along edir(3) : 
        Dipole               -0.2203 Ry au,         -0.5600 Debye
        Dipole field         -0.0004 Ry au
 
        Potential amp.        0.0306 Ry
        Total length         38.9923 bohr
 
 
     Magnetic moment per site:
     atom:    1    charge:    3.9717    magn:    0.8496    constr:    0.0000
     atom:    2    charge:    3.9624    magn:    0.8576    constr:    0.0000
     atom:    3    charge:    3.9629    magn:    0.8559    constr:    0.0000
     atom:    4    charge:    3.9661    magn:    0.8719    constr:    0.0000
     atom:    5    charge:    3.9715    magn:    0.8504    constr:    0.0000
     atom:    6    charge:    3.9644    magn:    0.8569    constr:    0.0000
     atom:    7    charge:    3.9630    magn:    0.8559    constr:    0.0000
     atom:    8    charge:    3.9661    magn:    0.8719    constr:    0.0000
     atom:    9    charge:    3.9717    magn:    0.8496    constr:    0.0000
     atom:   10    charge:    3.9625    magn:    0.8575    constr:    0.0000
     atom:   11    charge:    3.9607    magn:    0.8624    constr:    0.0000
     atom:   12    charge:    3.9754    magn:    0.8517    constr:    0.0000
     atom:   13    charge:    3.9717    magn:    0.8496    constr:    0.0000
     atom:   14    charge:    3.9614    magn:    0.8571    constr:    0.0000
     atom:   15    charge:    3.9630    magn:    0.8559    constr:    0.0000
     atom:   16    charge:    3.9771    magn:    0.8520    constr:    0.0000
     atom:   17    charge:    3.9719    magn:    0.8501    constr:    0.0000
     atom:   18    charge:    3.9644    magn:    0.8569    constr:    0.0000
     atom:   19    charge:    3.9735    magn:    0.8521    constr:    0.0000
     atom:   20    charge:    3.9661    magn:    0.8719    constr:    0.0000
     atom:   21    charge:    3.9720    magn:    0.8501    constr:    0.0000
     atom:   22    charge:    3.9644    magn:    0.8569    constr:    0.0000
     atom:   23    charge:    3.9630    magn:    0.8559    constr:    0.0000
     atom:   24    charge:    3.9772    magn:    0.8519    constr:    0.0000
     atom:   25    charge:    3.9716    magn:    0.8504    constr:    0.0000
     atom:   26    charge:    3.9614    magn:    0.8571    constr:    0.0000
     atom:   27    charge:    3.9566    magn:    0.8666    constr:    0.0000
     atom:   28    charge:    3.9772    magn:    0.8519    constr:    0.0000
     atom:   29    charge:    3.9715    magn:    0.8505    constr:    0.0000
     atom:   30    charge:    3.9614    magn:    0.8571    constr:    0.0000
     atom:   31    charge:    3.9630    magn:    0.8559    constr:    0.0000
     atom:   32    charge:    3.9753    magn:    0.8517    constr:    0.0000
     atom:   33    charge:    3.9719    magn:    0.8501    constr:    0.0000
     atom:   34    charge:    3.9624    magn:    0.8576    constr:    0.0000
     atom:   35    charge:    3.9629    magn:    0.8559    constr:    0.0000
     atom:   36    charge:    3.9754    magn:    0.8517    constr:    0.0000
     atom:   37    charge:    2.0536    magn:    0.6723    constr:    0.0000

     total cpu time spent up to now is      533.8 secs

     total energy              =   -3655.90961938 Ry
     Harris-Foulkes estimate   =   -3655.57503355 Ry
     estimated scf accuracy    <       1.48253936 Ry

     total magnetization       =    37.85 Bohr mag/cell
     absolute magnetization    =    38.32 Bohr mag/cell

     iteration #  7     ecut=    44.10 Ry     beta=0.10
     Davidson diagonalization with overlap
     ethr =  4.05E-04,  avg # of iterations =  3.9

     negative rho (up, down):  3.437E-04 2.484E-04
 
     Adding external electric field

     Computed dipole along edir(3) : 
        Dipole               -0.1935 Ry au,         -0.4919 Debye
        Dipole field         -0.0003 Ry au
 
        Potential amp.        0.0269 Ry
        Total length         38.9923 bohr
 
 
     Adding external electric field

     Computed dipole along edir(3) : 
        Dipole               -0.1935 Ry au,         -0.4919 Debye
        Dipole field         -0.0003 Ry au
 
        Potential amp.        0.0269 Ry
        Total length         38.9923 bohr
 
 
     Magnetic moment per site:
     atom:    1    charge:    3.9674    magn:    0.7602    constr:    0.0000
     atom:    2    charge:    3.9650    magn:    0.7653    constr:    0.0000
     atom:    3    charge:    3.9647    magn:    0.7638    constr:    0.0000
     atom:    4    charge:    3.9666    magn:    0.7832    constr:    0.0000
     atom:    5    charge:    3.9674    magn:    0.7609    constr:    0.0000
     atom:    6    charge:    3.9627    magn:    0.7684    constr:    0.0000
     atom:    7    charge:    3.9647    magn:    0.7638    constr:    0.0000
     atom:    8    charge:    3.9665    magn:    0.7832    constr:    0.0000
     atom:    9    charge:    3.9673    magn:    0.7602    constr:    0.0000
     atom:   10    charge:    3.9650    magn:    0.7653    constr:    0.0000
     atom:   11    charge:    3.9659    magn:    0.7692    constr:    0.0000
     atom:   12    charge:    3.9719    magn:    0.7622    constr:    0.0000
     atom:   13    charge:    3.9673    magn:    0.7602    constr:    0.0000
     atom:   14    charge:    3.9654    magn:    0.7633    constr:    0.0000
     atom:   15    charge:    3.9647    magn:    0.7638    constr:    0.0000
     atom:   16    charge:    3.9736    magn:    0.7632    constr:    0.0000
     atom:   17    charge:    3.9661    magn:    0.7620    constr:    0.0000
     atom:   18    charge:    3.9627    magn:    0.7684    constr:    0.0000
     atom:   19    charge:    3.9608    magn:    0.7726    constr:    0.0000
     atom:   20    charge:    3.9666    magn:    0.7832    constr:    0.0000
     atom:   21    charge:    3.9661    magn:    0.7620    constr:    0.0000
     atom:   22    charge:    3.9627    magn:    0.7684    constr:    0.0000
     atom:   23    charge:    3.9647    magn:    0.7638    constr:    0.0000
     atom:   24    charge:    3.9736    magn:    0.7633    constr:    0.0000
     atom:   25    charge:    3.9674    magn:    0.7609    constr:    0.0000
     atom:   26    charge:    3.9654    magn:    0.7633    constr:    0.0000
     atom:   27    charge:    3.9647    magn:    0.7721    constr:    0.0000
     atom:   28    charge:    3.9736    magn:    0.7633    constr:    0.0000
     atom:   29    charge:    3.9674    magn:    0.7609    constr:    0.0000
     atom:   30    charge:    3.9654    magn:    0.7633    constr:    0.0000
     atom:   31    charge:    3.9647    magn:    0.7638    constr:    0.0000
     atom:   32    charge:    3.9719    magn:    0.7622    constr:    0.0000
     atom:   33    charge:    3.9661    magn:    0.7619    constr:    0.0000
     atom:   34    charge:    3.9650    magn:    0.7653    constr:    0.0000
     atom:   35    charge:    3.9647    magn:    0.7638    constr:    0.0000
     atom:   36    charge:    3.9719    magn:    0.7622    constr:    0.0000
     atom:   37    charge:    2.0572    magn:    0.5751    constr:    0.0000

     total cpu time spent up to now is      612.6 secs

     total energy              =   -3656.15688080 Ry
     Harris-Foulkes estimate   =   -3655.95469196 Ry
     estimated scf accuracy    <       2.07671074 Ry

     total magnetization       =    36.03 Bohr mag/cell
     absolute magnetization    =    36.89 Bohr mag/cell

     iteration #  8     ecut=    44.10 Ry     beta=0.10
     Davidson diagonalization with overlap
     ethr =  4.05E-04,  avg # of iterations =  2.2

     negative rho (up, down):  3.858E-04 3.693E-04
 
     Adding external electric field

     Computed dipole along edir(3) : 
        Dipole               -0.1143 Ry au,         -0.2906 Debye
        Dipole field         -0.0002 Ry au
 
        Potential amp.        0.0159 Ry
        Total length         38.9923 bohr
 
 
     Adding external electric field

     Computed dipole along edir(3) : 
        Dipole               -0.1143 Ry au,         -0.2906 Debye
        Dipole field         -0.0002 Ry au
 
        Potential amp.        0.0159 Ry
        Total length         38.9923 bohr
 
 
     Magnetic moment per site:
     atom:    1    charge:    3.9659    magn:    0.6173    constr:    0.0000
     atom:    2    charge:    3.9658    magn:    0.6225    constr:    0.0000
     atom:    3    charge:    3.9663    magn:    0.6188    constr:    0.0000
     atom:    4    charge:    3.9687    magn:    0.6406    constr:    0.0000
     atom:    5    charge:    3.9647    magn:    0.6186    constr:    0.0000
     atom:    6    charge:    3.9692    magn:    0.6219    constr:    0.0000
     atom:    7    charge:    3.9663    magn:    0.6188    constr:    0.0000
     atom:    8    charge:    3.9688    magn:    0.6406    constr:    0.0000
     atom:    9    charge:    3.9659    magn:    0.6172    constr:    0.0000
     atom:   10    charge:    3.9658    magn:    0.6224    constr:    0.0000
     atom:   11    charge:    3.9681    magn:    0.6263    constr:    0.0000
     atom:   12    charge:    3.9682    magn:    0.6214    constr:    0.0000
     atom:   13    charge:    3.9659    magn:    0.6173    constr:    0.0000
     atom:   14    charge:    3.9646    magn:    0.6203    constr:    0.0000
     atom:   15    charge:    3.9663    magn:    0.6188    constr:    0.0000
     atom:   16    charge:    3.9724    magn:    0.6213    constr:    0.0000
     atom:   17    charge:    3.9702    magn:    0.6143    constr:    0.0000
     atom:   18    charge:    3.9692    magn:    0.6219    constr:    0.0000
     atom:   19    charge:    3.9661    magn:    0.6278    constr:    0.0000
     atom:   20    charge:    3.9687    magn:    0.6406    constr:    0.0000
     atom:   21    charge:    3.9702    magn:    0.6143    constr:    0.0000
     atom:   22    charge:    3.9692    magn:    0.6219    constr:    0.0000
     atom:   23    charge:    3.9663    magn:    0.6187    constr:    0.0000
     atom:   24    charge:    3.9725    magn:    0.6213    constr:    0.0000
     atom:   25    charge:    3.9647    magn:    0.6186    constr:    0.0000
     atom:   26    charge:    3.9646    magn:    0.6204    constr:    0.0000
     atom:   27    charge:    3.9725    magn:    0.6260    constr:    0.0000
     atom:   28    charge:    3.9724    magn:    0.6213    constr:    0.0000
     atom:   29    charge:    3.9647    magn:    0.6186    constr:    0.0000
     atom:   30    charge:    3.9646    magn:    0.6204    constr:    0.0000
     atom:   31    charge:    3.9663    magn:    0.6188    constr:    0.0000
     atom:   32    charge:    3.9681    magn:    0.6214    constr:    0.0000
     atom:   33    charge:    3.9702    magn:    0.6143    constr:    0.0000
     atom:   34    charge:    3.9658    magn:    0.6225    constr:    0.0000
     atom:   35    charge:    3.9663    magn:    0.6187    constr:    0.0000
     atom:   36    charge:    3.9681    magn:    0.6214    constr:    0.0000
     atom:   37    charge:    2.0536    magn:    0.4199    constr:    0.0000

     total cpu time spent up to now is      684.7 secs

     total energy              =   -3656.42427975 Ry
     Harris-Foulkes estimate   =   -3656.20452293 Ry
     estimated scf accuracy    <       1.52967772 Ry

     total magnetization       =    33.50 Bohr mag/cell
     absolute magnetization    =    35.01 Bohr mag/cell

     iteration #  9     ecut=    44.10 Ry     beta=0.10
     Davidson diagonalization with overlap
     ethr =  4.05E-04,  avg # of iterations =  5.0

     negative rho (up, down):  4.226E-04 4.567E-04
 
     Adding external electric field

     Computed dipole along edir(3) : 
        Dipole               -0.1043 Ry au,         -0.2651 Debye
        Dipole field         -0.0002 Ry au
 
        Potential amp.        0.0145 Ry
        Total length         38.9923 bohr
 
 
     Adding external electric field

     Computed dipole along edir(3) : 
        Dipole               -0.1043 Ry au,         -0.2651 Debye
        Dipole field         -0.0002 Ry au
 
        Potential amp.        0.0145 Ry
        Total length         38.9923 bohr
 
 
     Magnetic moment per site:
     atom:    1    charge:    3.9688    magn:    0.5178    constr:    0.0000
     atom:    2    charge:    3.9686    magn:    0.5245    constr:    0.0000
     atom:    3    charge:    3.9681    magn:    0.5205    constr:    0.0000
     atom:    4    charge:    3.9695    magn:    0.5438    constr:    0.0000
     atom:    5    charge:    3.9684    magn:    0.5185    constr:    0.0000
     atom:    6    charge:    3.9688    magn:    0.5264    constr:    0.0000
     atom:    7    charge:    3.9681    magn:    0.5205    constr:    0.0000
     atom:    8    charge:    3.9695    magn:    0.5438    constr:    0.0000
     atom:    9    charge:    3.9688    magn:    0.5178    constr:    0.0000
     atom:   10    charge:    3.9686    magn:    0.5245    constr:    0.0000
     atom:   11    charge:    3.9705    magn:    0.5285    constr:    0.0000
     atom:   12    charge:    3.9689    magn:    0.5243    constr:    0.0000
     atom:   13    charge:    3.9688    magn:    0.5179    constr:    0.0000
     atom:   14    charge:    3.9685    magn:    0.5208    constr:    0.0000
     atom:   15    charge:    3.9681    magn:    0.5205    constr:    0.0000
     atom:   16    charge:    3.9717    magn:    0.5257    constr:    0.0000
     atom:   17    charge:    3.9662    magn:    0.5197    constr:    0.0000
     atom:   18    charge:    3.9688    magn:    0.5264    constr:    0.0000
     atom:   19    charge:    3.9716    magn:    0.5291    constr:    0.0000
     atom:   20    charge:    3.9695    magn:    0.5438    constr:    0.0000
     atom:   21    charge:    3.9662    magn:    0.5197    constr:    0.0000
     atom:   22    charge:    3.9688    magn:    0.5264    constr:    0.0000
     atom:   23    charge:    3.9681    magn:    0.5205    constr:    0.0000
     atom:   24    charge:    3.9717    magn:    0.5257    constr:    0.0000
     atom:   25    charge:    3.9684    magn:    0.5185    constr:    0.0000
     atom:   26    charge:    3.9685    magn:    0.5208    constr:    0.0000
     atom:   27    charge:    3.9692    magn:    0.5329    constr:    0.0000
     atom:   28    charge:    3.9717    magn:    0.5257    constr:    0.0000
     atom:   29    charge:    3.9684    magn:    0.5185    constr:    0.0000
     atom:   30    charge:    3.9685    magn:    0.5208    constr:    0.0000
     atom:   31    charge:    3.9681    magn:    0.5205    constr:    0.0000
     atom:   32    charge:    3.9689    magn:    0.5243    constr:    0.0000
     atom:   33    charge:    3.9662    magn:    0.5197    constr:    0.0000
     atom:   34    charge:    3.9686    magn:    0.5245    constr:    0.0000
     atom:   35    charge:    3.9681    magn:    0.5205    constr:    0.0000
     atom:   36    charge:    3.9689    magn:    0.5243    constr:    0.0000
     atom:   37    charge:    2.0457    magn:    0.3140    constr:    0.0000

     total cpu time spent up to now is      769.6 secs

     total energy              =   -3656.54879144 Ry
     Harris-Foulkes estimate   =   -3656.48957528 Ry
     estimated scf accuracy    <       1.26981767 Ry

     total magnetization       =    29.17 Bohr mag/cell
     absolute magnetization    =    32.07 Bohr mag/cell

     iteration # 10     ecut=    44.10 Ry     beta=0.10
     Davidson diagonalization with overlap
     ethr =  3.47E-04,  avg # of iterations =  1.6

     negative rho (up, down):  4.404E-04 4.972E-04
 
     Adding external electric field

     Computed dipole along edir(3) : 
        Dipole               -0.1685 Ry au,         -0.4283 Debye
        Dipole field         -0.0003 Ry au
 
        Potential amp.        0.0234 Ry
        Total length         38.9923 bohr
 
 
     Adding external electric field

     Computed dipole along edir(3) : 
        Dipole               -0.1685 Ry au,         -0.4283 Debye
        Dipole field         -0.0003 Ry au
 
        Potential amp.        0.0234 Ry
        Total length         38.9923 bohr
 
 
     Magnetic moment per site:
     atom:    1    charge:    3.9665    magn:    0.4520    constr:    0.0000
     atom:    2    charge:    3.9711    magn:    0.4571    constr:    0.0000
     atom:    3    charge:    3.9701    magn:    0.4528    constr:    0.0000
     atom:    4    charge:    3.9696    magn:    0.4756    constr:    0.0000
     atom:    5    charge:    3.9683    magn:    0.4513    constr:    0.0000
     atom:    6    charge:    3.9696    magn:    0.4601    constr:    0.0000
     atom:    7    charge:    3.9701    magn:    0.4528    constr:    0.0000
     atom:    8    charge:    3.9696    magn:    0.4756    constr:    0.0000
     atom:    9    charge:    3.9665    magn:    0.4520    constr:    0.0000
     atom:   10    charge:    3.9711    magn:    0.4571    constr:    0.0000
     atom:   11    charge:    3.9696    magn:    0.4625    constr:    0.0000
     atom:   12    charge:    3.9683    magn:    0.4594    constr:    0.0000
     atom:   13    charge:    3.9665    magn:    0.4521    constr:    0.0000
     atom:   14    charge:    3.9720    magn:    0.4521    constr:    0.0000
     atom:   15    charge:    3.9701    magn:    0.4528    constr:    0.0000
     atom:   16    charge:    3.9727    magn:    0.4592    constr:    0.0000
     atom:   17    charge:    3.9689    magn:    0.4505    constr:    0.0000
     atom:   18    charge:    3.9696    magn:    0.4601    constr:    0.0000
     atom:   19    charge:    3.9730    magn:    0.4636    constr:    0.0000
     atom:   20    charge:    3.9696    magn:    0.4756    constr:    0.0000
     atom:   21    charge:    3.9689    magn:    0.4505    constr:    0.0000
     atom:   22    charge:    3.9696    magn:    0.4601    constr:    0.0000
     atom:   23    charge:    3.9701    magn:    0.4528    constr:    0.0000
     atom:   24    charge:    3.9727    magn:    0.4593    constr:    0.0000
     atom:   25    charge:    3.9683    magn:    0.4513    constr:    0.0000
     atom:   26    charge:    3.9720    magn:    0.4521    constr:    0.0000
     atom:   27    charge:    3.9686    magn:    0.4676    constr:    0.0000
     atom:   28    charge:    3.9727    magn:    0.4592    constr:    0.0000
     atom:   29    charge:    3.9683    magn:    0.4513    constr:    0.0000
     atom:   30    charge:    3.9720    magn:    0.4521    constr:    0.0000
     atom:   31    charge:    3.9701    magn:    0.4528    constr:    0.0000
     atom:   32    charge:    3.9683    magn:    0.4594    constr:    0.0000
     atom:   33    charge:    3.9689    magn:    0.4505    constr:    0.0000
     atom:   34    charge:    3.9711    magn:    0.4571    constr:    0.0000
     atom:   35    charge:    3.9701    magn:    0.4528    constr:    0.0000
     atom:   36    charge:    3.9683    magn:    0.4594    constr:    0.0000
     atom:   37    charge:    2.0318    magn:    0.2393    constr:    0.0000

     total cpu time spent up to now is      839.6 secs

     total energy              =   -3656.58225098 Ry
     Harris-Foulkes estimate   =   -3656.58334597 Ry
     estimated scf accuracy    <       1.79910576 Ry

     total magnetization       =    26.14 Bohr mag/cell
     absolute magnetization    =    30.07 Bohr mag/cell

     iteration # 11     ecut=    44.10 Ry     beta=0.10
     Davidson diagonalization with overlap
     ethr =  3.47E-04,  avg # of iterations =  1.6

     negative rho (up, down):  4.395E-04 4.991E-04
 
     Adding external electric field

     Computed dipole along edir(3) : 
        Dipole               -0.2112 Ry au,         -0.5369 Debye
        Dipole field         -0.0004 Ry au
 
        Potential amp.        0.0294 Ry
        Total length         38.9923 bohr
 
 
     Adding external electric field

     Computed dipole along edir(3) : 
        Dipole               -0.2112 Ry au,         -0.5369 Debye
        Dipole field         -0.0004 Ry au
 
        Potential amp.        0.0294 Ry
        Total length         38.9923 bohr
 
 
     Magnetic moment per site:
     atom:    1    charge:    3.9682    magn:    0.4096    constr:    0.0000
     atom:    2    charge:    3.9723    magn:    0.4159    constr:    0.0000
     atom:    3    charge:    3.9714    magn:    0.4113    constr:    0.0000
     atom:    4    charge:    3.9686    magn:    0.4330    constr:    0.0000
     atom:    5    charge:    3.9676    magn:    0.4107    constr:    0.0000
     atom:    6    charge:    3.9717    magn:    0.4185    constr:    0.0000
     atom:    7    charge:    3.9714    magn:    0.4113    constr:    0.0000
     atom:    8    charge:    3.9686    magn:    0.4330    constr:    0.0000
     atom:    9    charge:    3.9683    magn:    0.4096    constr:    0.0000
     atom:   10    charge:    3.9723    magn:    0.4158    constr:    0.0000
     atom:   11    charge:    3.9722    magn:    0.4197    constr:    0.0000
     atom:   12    charge:    3.9681    magn:    0.4203    constr:    0.0000
     atom:   13    charge:    3.9683    magn:    0.4096    constr:    0.0000
     atom:   14    charge:    3.9721    magn:    0.4112    constr:    0.0000
     atom:   15    charge:    3.9714    magn:    0.4113    constr:    0.0000
     atom:   16    charge:    3.9716    magn:    0.4197    constr:    0.0000
     atom:   17    charge:    3.9683    magn:    0.4095    constr:    0.0000
     atom:   18    charge:    3.9717    magn:    0.4185    constr:    0.0000
     atom:   19    charge:    3.9740    magn:    0.4236    constr:    0.0000
     atom:   20    charge:    3.9686    magn:    0.4330    constr:    0.0000
     atom:   21    charge:    3.9683    magn:    0.4095    constr:    0.0000
     atom:   22    charge:    3.9717    magn:    0.4185    constr:    0.0000
     atom:   23    charge:    3.9714    magn:    0.4112    constr:    0.0000
     atom:   24    charge:    3.9716    magn:    0.4197    constr:    0.0000
     atom:   25    charge:    3.9676    magn:    0.4107    constr:    0.0000
     atom:   26    charge:    3.9721    magn:    0.4112    constr:    0.0000
     atom:   27    charge:    3.9708    magn:    0.4259    constr:    0.0000
     atom:   28    charge:    3.9716    magn:    0.4197    constr:    0.0000
     atom:   29    charge:    3.9676    magn:    0.4107    constr:    0.0000
     atom:   30    charge:    3.9721    magn:    0.4112    constr:    0.0000
     atom:   31    charge:    3.9714    magn:    0.4113    constr:    0.0000
     atom:   32    charge:    3.9681    magn:    0.4203    constr:    0.0000
     atom:   33    charge:    3.9683    magn:    0.4095    constr:    0.0000
     atom:   34    charge:    3.9723    magn:    0.4159    constr:    0.0000
     atom:   35    charge:    3.9714    magn:    0.4113    constr:    0.0000
     atom:   36    charge:    3.9681    magn:    0.4203    constr:    0.0000
     atom:   37    charge:    2.0208    magn:    0.1914    constr:    0.0000

     total cpu time spent up to now is      910.2 secs

     total energy              =   -3656.58717723 Ry
     Harris-Foulkes estimate   =   -3656.59886578 Ry
     estimated scf accuracy    <       0.22527533 Ry

     total magnetization       =    24.00 Bohr mag/cell
     absolute magnetization    =    28.59 Bohr mag/cell

     iteration # 12     ecut=    44.10 Ry     beta=0.10
     Davidson diagonalization with overlap
     ethr =  6.16E-05,  avg # of iterations =  6.3

     negative rho (up, down):  4.139E-04 4.511E-04
 
     Adding external electric field

     Computed dipole along edir(3) : 
        Dipole               -0.2197 Ry au,         -0.5585 Debye
        Dipole field         -0.0004 Ry au
 
        Potential amp.        0.0306 Ry
        Total length         38.9923 bohr
 
 
     Adding external electric field

     Computed dipole along edir(3) : 
        Dipole               -0.2197 Ry au,         -0.5585 Debye
        Dipole field         -0.0004 Ry au
 
        Potential amp.        0.0306 Ry
        Total length         38.9923 bohr
 
 
     Magnetic moment per site:
     atom:    1    charge:    3.9679    magn:    0.4093    constr:    0.0000
     atom:    2    charge:    3.9716    magn:    0.4155    constr:    0.0000
     atom:    3    charge:    3.9712    magn:    0.4105    constr:    0.0000
     atom:    4    charge:    3.9676    magn:    0.4312    constr:    0.0000
     atom:    5    charge:    3.9690    magn:    0.4096    constr:    0.0000
     atom:    6    charge:    3.9725    magn:    0.4171    constr:    0.0000
     atom:    7    charge:    3.9712    magn:    0.4105    constr:    0.0000
     atom:    8    charge:    3.9676    magn:    0.4312    constr:    0.0000
     atom:    9    charge:    3.9679    magn:    0.4093    constr:    0.0000
     atom:   10    charge:    3.9716    magn:    0.4155    constr:    0.0000
     atom:   11    charge:    3.9723    magn:    0.4182    constr:    0.0000
     atom:   12    charge:    3.9677    magn:    0.4212    constr:    0.0000
     atom:   13    charge:    3.9679    magn:    0.4094    constr:    0.0000
     atom:   14    charge:    3.9725    magn:    0.4101    constr:    0.0000
     atom:   15    charge:    3.9712    magn:    0.4105    constr:    0.0000
     atom:   16    charge:    3.9714    magn:    0.4195    constr:    0.0000
     atom:   17    charge:    3.9680    magn:    0.4092    constr:    0.0000
     atom:   18    charge:    3.9725    magn:    0.4171    constr:    0.0000
     atom:   19    charge:    3.9737    magn:    0.4234    constr:    0.0000
     atom:   20    charge:    3.9676    magn:    0.4312    constr:    0.0000
     atom:   21    charge:    3.9680    magn:    0.4092    constr:    0.0000
     atom:   22    charge:    3.9725    magn:    0.4171    constr:    0.0000
     atom:   23    charge:    3.9712    magn:    0.4105    constr:    0.0000
     atom:   24    charge:    3.9714    magn:    0.4196    constr:    0.0000
     atom:   25    charge:    3.9690    magn:    0.4096    constr:    0.0000
     atom:   26    charge:    3.9725    magn:    0.4101    constr:    0.0000
     atom:   27    charge:    3.9721    magn:    0.4239    constr:    0.0000
     atom:   28    charge:    3.9714    magn:    0.4196    constr:    0.0000
     atom:   29    charge:    3.9690    magn:    0.4096    constr:    0.0000
     atom:   30    charge:    3.9725    magn:    0.4101    constr:    0.0000
     atom:   31    charge:    3.9712    magn:    0.4105    constr:    0.0000
     atom:   32    charge:    3.9677    magn:    0.4212    constr:    0.0000
     atom:   33    charge:    3.9680    magn:    0.4092    constr:    0.0000
     atom:   34    charge:    3.9716    magn:    0.4155    constr:    0.0000
     atom:   35    charge:    3.9712    magn:    0.4105    constr:    0.0000
     atom:   36    charge:    3.9677    magn:    0.4212    constr:    0.0000
     atom:   37    charge:    2.0190    magn:    0.1876    constr:    0.0000

     total cpu time spent up to now is     1002.9 secs

     total energy              =   -3656.59077533 Ry
     Harris-Foulkes estimate   =   -3656.59457979 Ry
     estimated scf accuracy    <       0.16840656 Ry

     total magnetization       =    22.83 Bohr mag/cell
     absolute magnetization    =    27.73 Bohr mag/cell

     iteration # 13     ecut=    44.10 Ry     beta=0.10
     Davidson diagonalization with overlap
     ethr =  4.60E-05,  avg # of iterations =  1.1

     negative rho (up, down):  3.928E-04 4.103E-04
 
     Adding external electric field

     Computed dipole along edir(3) : 
        Dipole               -0.2216 Ry au,         -0.5632 Debye
        Dipole field         -0.0004 Ry au
 
        Potential amp.        0.0308 Ry
        Total length         38.9923 bohr
 
 
     Adding external electric field

     Computed dipole along edir(3) : 
        Dipole               -0.2216 Ry au,         -0.5632 Debye
        Dipole field         -0.0004 Ry au
 
        Potential amp.        0.0308 Ry
        Total length         38.9923 bohr
 
 
     Magnetic moment per site:
     atom:    1    charge:    3.9696    magn:    0.4077    constr:    0.0000
     atom:    2    charge:    3.9720    magn:    0.4141    constr:    0.0000
     atom:    3    charge:    3.9710    magn:    0.4094    constr:    0.0000
     atom:    4    charge:    3.9678    magn:    0.4287    constr:    0.0000
     atom:    5    charge:    3.9698    magn:    0.4089    constr:    0.0000
     atom:    6    charge:    3.9716    magn:    0.4162    constr:    0.0000
     atom:    7    charge:    3.9710    magn:    0.4094    constr:    0.0000
     atom:    8    charge:    3.9678    magn:    0.4287    constr:    0.0000
     atom:    9    charge:    3.9696    magn:    0.4077    constr:    0.0000
     atom:   10    charge:    3.9720    magn:    0.4141    constr:    0.0000
     atom:   11    charge:    3.9724    magn:    0.4160    constr:    0.0000
     atom:   12    charge:    3.9687    magn:    0.4215    constr:    0.0000
     atom:   13    charge:    3.9696    magn:    0.4077    constr:    0.0000
     atom:   14    charge:    3.9721    magn:    0.4092    constr:    0.0000
     atom:   15    charge:    3.9710    magn:    0.4094    constr:    0.0000
     atom:   16    charge:    3.9717    magn:    0.4193    constr:    0.0000
     atom:   17    charge:    3.9699    magn:    0.4075    constr:    0.0000
     atom:   18    charge:    3.9716    magn:    0.4162    constr:    0.0000
     atom:   19    charge:    3.9729    magn:    0.4231    constr:    0.0000
     atom:   20    charge:    3.9678    magn:    0.4287    constr:    0.0000
     atom:   21    charge:    3.9699    magn:    0.4075    constr:    0.0000
     atom:   22    charge:    3.9716    magn:    0.4162    constr:    0.0000
     atom:   23    charge:    3.9710    magn:    0.4094    constr:    0.0000
     atom:   24    charge:    3.9717    magn:    0.4193    constr:    0.0000
     atom:   25    charge:    3.9698    magn:    0.4089    constr:    0.0000
     atom:   26    charge:    3.9721    magn:    0.4092    constr:    0.0000
     atom:   27    charge:    3.9711    magn:    0.4227    constr:    0.0000
     atom:   28    charge:    3.9717    magn:    0.4193    constr:    0.0000
     atom:   29    charge:    3.9698    magn:    0.4089    constr:    0.0000
     atom:   30    charge:    3.9721    magn:    0.4092    constr:    0.0000
     atom:   31    charge:    3.9710    magn:    0.4094    constr:    0.0000
     atom:   32    charge:    3.9687    magn:    0.4215    constr:    0.0000
     atom:   33    charge:    3.9699    magn:    0.4075    constr:    0.0000
     atom:   34    charge:    3.9720    magn:    0.4141    constr:    0.0000
     atom:   35    charge:    3.9710    magn:    0.4094    constr:    0.0000
     atom:   36    charge:    3.9687    magn:    0.4215    constr:    0.0000
     atom:   37    charge:    2.0187    magn:    0.1834    constr:    0.0000

     total cpu time spent up to now is     1071.2 secs

     total energy              =   -3656.59070011 Ry
     Harris-Foulkes estimate   =   -3656.59295082 Ry
     estimated scf accuracy    <       0.06998733 Ry

     total magnetization       =    22.84 Bohr mag/cell
     absolute magnetization    =    27.68 Bohr mag/cell

     iteration # 14     ecut=    44.10 Ry     beta=0.10
     Davidson diagonalization with overlap
     ethr =  1.91E-05,  avg # of iterations =  1.7

     negative rho (up, down):  3.782E-04 3.823E-04
 
     Adding external electric field

     Computed dipole along edir(3) : 
        Dipole               -0.2407 Ry au,         -0.6117 Debye
        Dipole field         -0.0004 Ry au
 
        Potential amp.        0.0335 Ry
        Total length         38.9923 bohr
 
 
     Adding external electric field

     Computed dipole along edir(3) : 
        Dipole               -0.2407 Ry au,         -0.6117 Debye
        Dipole field         -0.0004 Ry au
 
        Potential amp.        0.0335 Ry
        Total length         38.9923 bohr
 
 
     Magnetic moment per site:
     atom:    1    charge:    3.9709    magn:    0.3998    constr:    0.0000
     atom:    2    charge:    3.9711    magn:    0.4075    constr:    0.0000
     atom:    3    charge:    3.9711    magn:    0.4021    constr:    0.0000
     atom:    4    charge:    3.9680    magn:    0.4199    constr:    0.0000
     atom:    5    charge:    3.9708    magn:    0.4016    constr:    0.0000
     atom:    6    charge:    3.9713    magn:    0.4091    constr:    0.0000
     atom:    7    charge:    3.9711    magn:    0.4021    constr:    0.0000
     atom:    8    charge:    3.9680    magn:    0.4199    constr:    0.0000
     atom:    9    charge:    3.9709    magn:    0.3998    constr:    0.0000
     atom:   10    charge:    3.9711    magn:    0.4075    constr:    0.0000
     atom:   11    charge:    3.9712    magn:    0.4086    constr:    0.0000
     atom:   12    charge:    3.9700    magn:    0.4160    constr:    0.0000
     atom:   13    charge:    3.9709    magn:    0.3999    constr:    0.0000
     atom:   14    charge:    3.9716    magn:    0.4022    constr:    0.0000
     atom:   15    charge:    3.9711    magn:    0.4021    constr:    0.0000
     atom:   16    charge:    3.9734    magn:    0.4122    constr:    0.0000
     atom:   17    charge:    3.9706    magn:    0.4001    constr:    0.0000
     atom:   18    charge:    3.9713    magn:    0.4091    constr:    0.0000
     atom:   19    charge:    3.9724    magn:    0.4171    constr:    0.0000
     atom:   20    charge:    3.9680    magn:    0.4199    constr:    0.0000
     atom:   21    charge:    3.9706    magn:    0.4001    constr:    0.0000
     atom:   22    charge:    3.9713    magn:    0.4091    constr:    0.0000
     atom:   23    charge:    3.9711    magn:    0.4021    constr:    0.0000
     atom:   24    charge:    3.9734    magn:    0.4123    constr:    0.0000
     atom:   25    charge:    3.9708    magn:    0.4016    constr:    0.0000
     atom:   26    charge:    3.9716    magn:    0.4022    constr:    0.0000
     atom:   27    charge:    3.9714    magn:    0.4147    constr:    0.0000
     atom:   28    charge:    3.9734    magn:    0.4122    constr:    0.0000
     atom:   29    charge:    3.9708    magn:    0.4016    constr:    0.0000
     atom:   30    charge:    3.9716    magn:    0.4022    constr:    0.0000
     atom:   31    charge:    3.9711    magn:    0.4021    constr:    0.0000
     atom:   32    charge:    3.9700    magn:    0.4160    constr:    0.0000
     atom:   33    charge:    3.9706    magn:    0.4001    constr:    0.0000
     atom:   34    charge:    3.9711    magn:    0.4075    constr:    0.0000
     atom:   35    charge:    3.9711    magn:    0.4021    constr:    0.0000
     atom:   36    charge:    3.9700    magn:    0.4160    constr:    0.0000
     atom:   37    charge:    2.0173    magn:    0.1724    constr:    0.0000

     total cpu time spent up to now is     1141.9 secs

     total energy              =   -3656.59102323 Ry
     Harris-Foulkes estimate   =   -3656.59222420 Ry
     estimated scf accuracy    <       0.04655248 Ry

     total magnetization       =    22.87 Bohr mag/cell
     absolute magnetization    =    27.63 Bohr mag/cell

     iteration # 15     ecut=    44.10 Ry     beta=0.10
     Davidson diagonalization with overlap
     ethr =  1.27E-05,  avg # of iterations =  3.2

     negative rho (up, down):  3.631E-04 3.521E-04
 
     Adding external electric field

     Computed dipole along edir(3) : 
        Dipole               -0.2351 Ry au,         -0.5976 Debye
        Dipole field         -0.0004 Ry au
 
        Potential amp.        0.0327 Ry
        Total length         38.9923 bohr
 
 
     Adding external electric field

     Computed dipole along edir(3) : 
        Dipole               -0.2351 Ry au,         -0.5976 Debye
        Dipole field         -0.0004 Ry au
 
        Potential amp.        0.0327 Ry
        Total length         38.9923 bohr
 
 
     Magnetic moment per site:
     atom:    1    charge:    3.9707    magn:    0.3983    constr:    0.0000
     atom:    2    charge:    3.9710    magn:    0.4058    constr:    0.0000
     atom:    3    charge:    3.9705    magn:    0.4005    constr:    0.0000
     atom:    4    charge:    3.9679    magn:    0.4165    constr:    0.0000
     atom:    5    charge:    3.9711    magn:    0.4002    constr:    0.0000
     atom:    6    charge:    3.9712    magn:    0.4072    constr:    0.0000
     atom:    7    charge:    3.9705    magn:    0.4005    constr:    0.0000
     atom:    8    charge:    3.9679    magn:    0.4165    constr:    0.0000
     atom:    9    charge:    3.9707    magn:    0.3983    constr:    0.0000
     atom:   10    charge:    3.9710    magn:    0.4058    constr:    0.0000
     atom:   11    charge:    3.9717    magn:    0.4054    constr:    0.0000
     atom:   12    charge:    3.9708    magn:    0.4158    constr:    0.0000
     atom:   13    charge:    3.9707    magn:    0.3983    constr:    0.0000
     atom:   14    charge:    3.9712    magn:    0.4006    constr:    0.0000
     atom:   15    charge:    3.9705    magn:    0.4005    constr:    0.0000
     atom:   16    charge:    3.9731    magn:    0.4115    constr:    0.0000
     atom:   17    charge:    3.9708    magn:    0.3984    constr:    0.0000
     atom:   18    charge:    3.9712    magn:    0.4072    constr:    0.0000
     atom:   19    charge:    3.9717    magn:    0.4164    constr:    0.0000
     atom:   20    charge:    3.9679    magn:    0.4165    constr:    0.0000
     atom:   21    charge:    3.9708    magn:    0.3984    constr:    0.0000
     atom:   22    charge:    3.9712    magn:    0.4072    constr:    0.0000
     atom:   23    charge:    3.9705    magn:    0.4005    constr:    0.0000
     atom:   24    charge:    3.9731    magn:    0.4115    constr:    0.0000
     atom:   25    charge:    3.9711    magn:    0.4002    constr:    0.0000
     atom:   26    charge:    3.9712    magn:    0.4006    constr:    0.0000
     atom:   27    charge:    3.9708    magn:    0.4125    constr:    0.0000
     atom:   28    charge:    3.9731    magn:    0.4115    constr:    0.0000
     atom:   29    charge:    3.9710    magn:    0.4002    constr:    0.0000
     atom:   30    charge:    3.9712    magn:    0.4006    constr:    0.0000
     atom:   31    charge:    3.9705    magn:    0.4005    constr:    0.0000
     atom:   32    charge:    3.9708    magn:    0.4158    constr:    0.0000
     atom:   33    charge:    3.9708    magn:    0.3984    constr:    0.0000
     atom:   34    charge:    3.9710    magn:    0.4058    constr:    0.0000
     atom:   35    charge:    3.9705    magn:    0.4005    constr:    0.0000
     atom:   36    charge:    3.9708    magn:    0.4158    constr:    0.0000
     atom:   37    charge:    2.0170    magn:    0.1669    constr:    0.0000

     total cpu time spent up to now is     1218.4 secs

     total energy              =   -3656.59163799 Ry
     Harris-Foulkes estimate   =   -3656.59243503 Ry
     estimated scf accuracy    <       0.06397504 Ry

     total magnetization       =    22.70 Bohr mag/cell
     absolute magnetization    =    27.43 Bohr mag/cell

     iteration # 16     ecut=    44.10 Ry     beta=0.10
     Davidson diagonalization with overlap
     ethr =  1.27E-05,  avg # of iterations =  2.5

     negative rho (up, down):  3.521E-04 3.297E-04
 
     Adding external electric field

     Computed dipole along edir(3) : 
        Dipole               -0.2289 Ry au,         -0.5817 Debye
        Dipole field         -0.0004 Ry au
 
        Potential amp.        0.0318 Ry
        Total length         38.9923 bohr
 
 
     Adding external electric field

     Computed dipole along edir(3) : 
        Dipole               -0.2289 Ry au,         -0.5817 Debye
        Dipole field         -0.0004 Ry au
 
        Potential amp.        0.0318 Ry
        Total length         38.9923 bohr
 
 
     Magnetic moment per site:
     atom:    1    charge:    3.9713    magn:    0.3946    constr:    0.0000
     atom:    2    charge:    3.9707    magn:    0.4026    constr:    0.0000
     atom:    3    charge:    3.9703    magn:    0.3971    constr:    0.0000
     atom:    4    charge:    3.9678    magn:    0.4116    constr:    0.0000
     atom:    5    charge:    3.9712    magn:    0.3971    constr:    0.0000
     atom:    6    charge:    3.9705    magn:    0.4040    constr:    0.0000
     atom:    7    charge:    3.9703    magn:    0.3971    constr:    0.0000
     atom:    8    charge:    3.9678    magn:    0.4116    constr:    0.0000
     atom:    9    charge:    3.9713    magn:    0.3946    constr:    0.0000
     atom:   10    charge:    3.9707    magn:    0.4026    constr:    0.0000
     atom:   11    charge:    3.9710    magn:    0.4015    constr:    0.0000
     atom:   12    charge:    3.9711    magn:    0.4141    constr:    0.0000
     atom:   13    charge:    3.9713    magn:    0.3946    constr:    0.0000
     atom:   14    charge:    3.9709    magn:    0.3974    constr:    0.0000
     atom:   15    charge:    3.9703    magn:    0.3971    constr:    0.0000
     atom:   16    charge:    3.9740    magn:    0.4083    constr:    0.0000
     atom:   17    charge:    3.9712    magn:    0.3948    constr:    0.0000
     atom:   18    charge:    3.9705    magn:    0.4040    constr:    0.0000
     atom:   19    charge:    3.9716    magn:    0.4137    constr:    0.0000
     atom:   20    charge:    3.9678    magn:    0.4116    constr:    0.0000
     atom:   21    charge:    3.9712    magn:    0.3948    constr:    0.0000
     atom:   22    charge:    3.9705    magn:    0.4040    constr:    0.0000
     atom:   23    charge:    3.9703    magn:    0.3971    constr:    0.0000
     atom:   24    charge:    3.9740    magn:    0.4083    constr:    0.0000
     atom:   25    charge:    3.9712    magn:    0.3971    constr:    0.0000
     atom:   26    charge:    3.9709    magn:    0.3974    constr:    0.0000
     atom:   27    charge:    3.9706    magn:    0.4085    constr:    0.0000
     atom:   28    charge:    3.9740    magn:    0.4083    constr:    0.0000
     atom:   29    charge:    3.9712    magn:    0.3971    constr:    0.0000
     atom:   30    charge:    3.9709    magn:    0.3974    constr:    0.0000
     atom:   31    charge:    3.9703    magn:    0.3971    constr:    0.0000
     atom:   32    charge:    3.9711    magn:    0.4141    constr:    0.0000
     atom:   33    charge:    3.9712    magn:    0.3948    constr:    0.0000
     atom:   34    charge:    3.9707    magn:    0.4026    constr:    0.0000
     atom:   35    charge:    3.9703    magn:    0.3971    constr:    0.0000
     atom:   36    charge:    3.9711    magn:    0.4141    constr:    0.0000
     atom:   37    charge:    2.0168    magn:    0.1602    constr:    0.0000

     total cpu time spent up to now is     1291.7 secs

     total energy              =   -3656.59274881 Ry
     Harris-Foulkes estimate   =   -3656.59253734 Ry
     estimated scf accuracy    <       0.00653416 Ry

     total magnetization       =    22.70 Bohr mag/cell
     absolute magnetization    =    27.35 Bohr mag/cell

     iteration # 17     ecut=    44.10 Ry     beta=0.10
     Davidson diagonalization with overlap
     ethr =  1.79E-06,  avg # of iterations =  6.4

     negative rho (up, down):  3.443E-04 3.118E-04
 
     Adding external electric field

     Computed dipole along edir(3) : 
        Dipole               -0.2234 Ry au,         -0.5678 Debye
        Dipole field         -0.0004 Ry au
 
        Potential amp.        0.0311 Ry
        Total length         38.9923 bohr
 
 
     Adding external electric field

     Computed dipole along edir(3) : 
        Dipole               -0.2234 Ry au,         -0.5678 Debye
        Dipole field         -0.0004 Ry au
 
        Potential amp.        0.0311 Ry
        Total length         38.9923 bohr
 
 
     Magnetic moment per site:
     atom:    1    charge:    3.9718    magn:    0.3857    constr:    0.0000
     atom:    2    charge:    3.9697    magn:    0.3948    constr:    0.0000
     atom:    3    charge:    3.9695    magn:    0.3888    constr:    0.0000
     atom:    4    charge:    3.9682    magn:    0.3997    constr:    0.0000
     atom:    5    charge:    3.9719    magn:    0.3890    constr:    0.0000
     atom:    6    charge:    3.9696    magn:    0.3957    constr:    0.0000
     atom:    7    charge:    3.9695    magn:    0.3888    constr:    0.0000
     atom:    8    charge:    3.9682    magn:    0.3997    constr:    0.0000
     atom:    9    charge:    3.9718    magn:    0.3857    constr:    0.0000
     atom:   10    charge:    3.9697    magn:    0.3948    constr:    0.0000
     atom:   11    charge:    3.9703    magn:    0.3915    constr:    0.0000
     atom:   12    charge:    3.9727    magn:    0.4083    constr:    0.0000
     atom:   13    charge:    3.9718    magn:    0.3857    constr:    0.0000
     atom:   14    charge:    3.9698    magn:    0.3896    constr:    0.0000
     atom:   15    charge:    3.9695    magn:    0.3888    constr:    0.0000
     atom:   16    charge:    3.9749    magn:    0.4007    constr:    0.0000
     atom:   17    charge:    3.9718    magn:    0.3860    constr:    0.0000
     atom:   18    charge:    3.9696    magn:    0.3957    constr:    0.0000
     atom:   19    charge:    3.9707    magn:    0.4074    constr:    0.0000
     atom:   20    charge:    3.9682    magn:    0.3997    constr:    0.0000
     atom:   21    charge:    3.9718    magn:    0.3860    constr:    0.0000
     atom:   22    charge:    3.9696    magn:    0.3957    constr:    0.0000
     atom:   23    charge:    3.9695    magn:    0.3888    constr:    0.0000
     atom:   24    charge:    3.9749    magn:    0.4007    constr:    0.0000
     atom:   25    charge:    3.9719    magn:    0.3890    constr:    0.0000
     atom:   26    charge:    3.9698    magn:    0.3896    constr:    0.0000
     atom:   27    charge:    3.9695    magn:    0.3990    constr:    0.0000
     atom:   28    charge:    3.9749    magn:    0.4007    constr:    0.0000
     atom:   29    charge:    3.9719    magn:    0.3890    constr:    0.0000
     atom:   30    charge:    3.9698    magn:    0.3896    constr:    0.0000
     atom:   31    charge:    3.9695    magn:    0.3888    constr:    0.0000
     atom:   32    charge:    3.9727    magn:    0.4083    constr:    0.0000
     atom:   33    charge:    3.9718    magn:    0.3860    constr:    0.0000
     atom:   34    charge:    3.9697    magn:    0.3948    constr:    0.0000
     atom:   35    charge:    3.9695    magn:    0.3888    constr:    0.0000
     atom:   36    charge:    3.9727    magn:    0.4083    constr:    0.0000
     atom:   37    charge:    2.0171    magn:    0.1447    constr:    0.0000

     total cpu time spent up to now is     1387.5 secs

     total energy              =   -3656.59354767 Ry
     Harris-Foulkes estimate   =   -3656.59302303 Ry
     estimated scf accuracy    <       0.00742071 Ry

     total magnetization       =    22.65 Bohr mag/cell
     absolute magnetization    =    27.25 Bohr mag/cell

     iteration # 18     ecut=    44.10 Ry     beta=0.10
     Davidson diagonalization with overlap
     ethr =  1.79E-06,  avg # of iterations =  1.0

     negative rho (up, down):  3.363E-04 2.949E-04
 
     Adding external electric field

     Computed dipole along edir(3) : 
        Dipole               -0.2247 Ry au,         -0.5711 Debye
        Dipole field         -0.0004 Ry au
 
        Potential amp.        0.0312 Ry
        Total length         38.9923 bohr
 
 
     Adding external electric field

     Computed dipole along edir(3) : 
        Dipole               -0.2247 Ry au,         -0.5711 Debye
        Dipole field         -0.0004 Ry au
 
        Potential amp.        0.0312 Ry
        Total length         38.9923 bohr
 
 
     Magnetic moment per site:
     atom:    1    charge:    3.9718    magn:    0.3843    constr:    0.0000
     atom:    2    charge:    3.9695    magn:    0.3939    constr:    0.0000
     atom:    3    charge:    3.9692    magn:    0.3877    constr:    0.0000
     atom:    4    charge:    3.9684    magn:    0.3969    constr:    0.0000
     atom:    5    charge:    3.9719    magn:    0.3881    constr:    0.0000
     atom:    6    charge:    3.9694    magn:    0.3946    constr:    0.0000
     atom:    7    charge:    3.9692    magn:    0.3877    constr:    0.0000
     atom:    8    charge:    3.9684    magn:    0.3969    constr:    0.0000
     atom:    9    charge:    3.9719    magn:    0.3843    constr:    0.0000
     atom:   10    charge:    3.9695    magn:    0.3938    constr:    0.0000
     atom:   11    charge:    3.9696    magn:    0.3900    constr:    0.0000
     atom:   12    charge:    3.9727    magn:    0.4082    constr:    0.0000
     atom:   13    charge:    3.9719    magn:    0.3843    constr:    0.0000
     atom:   14    charge:    3.9696    magn:    0.3886    constr:    0.0000
     atom:   15    charge:    3.9692    magn:    0.3877    constr:    0.0000
     atom:   16    charge:    3.9750    magn:    0.3998    constr:    0.0000
     atom:   17    charge:    3.9718    magn:    0.3848    constr:    0.0000
[...]
    10.3289  10.5877  10.6604  10.7236  10.8072  10.9568  10.9994  11.0848
    11.1617  11.1699  11.3258  11.5208  11.5270  11.6132  11.7533  11.7573
    11.8529  12.0200  12.1475  12.2125  12.2473  12.3578  12.3862  12.6042
    12.7119  12.8759  12.9548  13.0769  13.1095  13.1151  13.1251  13.3254
    13.3508  13.4351  13.4433

 ------ SPIN DOWN ----------


          k = 0.0000 0.0000 0.0000 ( 34645 PWs)   bands (ev):

   -16.7278  -6.2957  -4.9592  -3.4395  -3.4394  -3.3303  -3.1969  -3.1615
    -3.1412  -3.1411  -2.9455  -2.9455  -2.7413  -2.3331  -2.3250  -2.3250
    -2.2502  -2.1093  -2.1093  -2.0196  -1.4833  -1.4808  -1.4808  -1.3365
    -1.3364  -1.3096  -0.9446  -0.9366  -0.9366  -0.9210  -0.9210  -0.9190
    -0.7892  -0.7889  -0.7889  -0.7700  -0.7558  -0.7558  -0.7399  -0.7399
    -0.7131  -0.7130  -0.7130  -0.6913  -0.6913  -0.6845  -0.6843  -0.5230
    -0.4425  -0.4424  -0.3827  -0.3827  -0.3684  -0.3632  -0.3632  -0.2609
    -0.2609  -0.2334  -0.0100  -0.0092  -0.0092   0.0049   0.0116   0.0116
     0.1306   0.2004   0.2053   0.2053   0.2724   0.2724   0.2933   0.3077
     0.3077   0.3396   0.3795   0.4086   0.5210   0.5210   0.5587   0.5587
     0.5816   0.5928   0.5928   0.6150   0.6207   0.6207   0.6411   0.6484
     0.6522   0.6562   0.6562   0.6703   0.6955   0.7108   0.7108   0.7438
     0.7438   0.7821   0.7821   0.7841   0.7842   0.7842   0.8104   0.8149
     0.8185   0.8195   0.8195   0.8542   0.8542   0.8882   0.8882   0.9586
     0.9586   0.9659   1.0505   1.0505   1.0952   1.1344   1.1352   1.1352
     1.1709   1.1709   1.2469   1.2707   1.2707   1.2879   1.3669   1.3669
     1.3751   1.3751   1.5477   1.5477   1.5612   1.5673   1.5997   1.5997
     1.6872   1.6970   1.6970   1.7031   1.7031   1.7038   1.7329   1.7329
     1.7554   1.8152   1.8394   1.8394   1.8512   1.8642   1.8642   1.8893
     1.9085   1.9085   1.9515   1.9515   1.9552   1.9592   1.9638   1.9638
     1.9809   1.9809   1.9879   1.9946   2.0023   2.0023   2.0221   2.0606
     2.0606   2.0641   2.0641   2.0786   2.0821   2.0821   2.1059   2.1059
     2.1223   2.1476   2.1476   2.1532   2.1532   2.1576   2.1935   2.1948
     2.1948   2.2228   2.2323   2.2327   2.2327   2.2825   2.2825   2.3480
     2.3537   2.3537   2.3679   2.3679   2.3937   2.5234   2.5234   2.5806
     2.8464   3.1578   3.1593   3.1593   3.5061   3.5061   4.3797   5.3408
     5.3490   5.3491   5.6681   5.6681   6.2742   6.5605   6.8904   7.0548
     7.0548   7.2969   7.3035   7.3165   7.3165   7.6802   7.7030   7.7031
     7.9339   7.9340   7.9446   8.0028   8.0507   8.0682   8.0682   8.9206
     9.0623   9.0623   9.2894   9.7233   9.7247   9.7577   9.7620   9.7629
     9.8605   9.9152  10.0359  10.0549  10.0558  10.1086  10.1141  10.1200
    10.1209  10.1277  10.3224  10.9269  10.9616  10.9653  10.9656  10.9722
    10.9734  11.0017  11.2099  11.3869  11.3871  11.5591  11.5600  11.5842
    11.5855  11.5862  11.7576  11.7584  11.7594  11.7840  11.7860  11.8109
    11.9032  12.2928  12.2934  12.6791  12.6804  12.6933  12.7902  12.7905
    12.8024  13.3620  13.4069

          k = 0.0000 0.0510 0.0000 ( 34862 PWs)   bands (ev):

   -16.7276  -5.8918  -4.7551  -4.5860  -3.7644  -3.7230  -3.6340  -3.2160
    -3.1458  -2.9587  -2.7088  -2.5021  -2.4551  -2.1846  -2.1739  -1.9892
    -1.9295  -1.8646  -1.7701  -1.7289  -1.7246  -1.4266  -1.4199  -1.3204
    -1.2932  -1.2825  -1.2434  -1.2391  -1.2057  -1.1773  -1.1567  -1.0990
    -0.9706  -0.9197  -0.9168  -0.9017  -0.8945  -0.7724  -0.7691  -0.7387
    -0.7377  -0.7149  -0.6565  -0.5998  -0.5955  -0.5664  -0.4587  -0.4427
    -0.4373  -0.3803  -0.3380  -0.3191  -0.2765  -0.2702  -0.2568  -0.2456
    -0.1837  -0.1211  -0.0962  -0.0848  -0.0646  -0.0125   0.0134   0.0591
     0.1437   0.1496   0.1687   0.1723   0.1946   0.2310   0.2369   0.2504
     0.2967   0.3073   0.3210   0.3569   0.3682   0.3844   0.4128   0.4297
     0.4345   0.4743   0.5122   0.5295   0.5629   0.5674   0.5763   0.5914
     0.6118   0.6127   0.6342   0.6502   0.6593   0.6849   0.7007   0.7092
     0.7132   0.7284   0.7591   0.7642   0.7826   0.7904   0.8228   0.8325
     0.8553   0.8558   0.8700   0.8845   0.8845   0.9160   0.9415   0.9518
     0.9678   0.9973   0.9978   1.0438   1.0793   1.0860   1.1321   1.1378
     1.1395   1.2383   1.2407   1.2546   1.2788   1.2833   1.3001   1.3227
     1.3436   1.3573   1.3623   1.3686   1.3733   1.4355   1.4614   1.5109
     1.5753   1.5790   1.5978   1.6039   1.6171   1.6254   1.6864   1.7139
     1.7189   1.7322   1.7483   1.7485   1.7762   1.7783   1.8019   1.8155
     1.8501   1.8710   1.8939   1.9120   1.9256   1.9613   1.9628   1.9672
     1.9710   2.0019   2.0242   2.0252   2.0592   2.0788   2.0854   2.1089
     2.1369   2.1502   2.1528   2.1744   2.1821   2.1914   2.2356   2.2551
     2.2715   2.2716   2.2858   2.2920   2.2955   2.3058   2.3274   2.3324
     2.3682   2.3974   2.3992   2.4240   2.4378   2.4428   2.4521   2.5296
     2.5760   2.6263   2.8140   2.8931   2.9165   2.9900   3.1067   3.1407
     3.3117   3.3486   3.6429   3.8596   4.1487   4.2846   4.3164   4.6268
     4.6530   4.7827   5.0826   5.1638   5.3049   5.4728   5.7718   5.9655
     6.3902   6.5130   6.5905   6.8331   6.9459   7.0783   7.2221   7.3857
     7.5548   8.0389   8.1423   8.2838   8.5084   8.5282   8.9856   8.9865
     9.0643   9.1281   9.1838   9.1981   9.2444   9.2844   9.3622   9.4190
     9.5534   9.5656   9.6614   9.8560   9.9629  10.1219  10.2417  10.4324
    10.4663  10.6917  10.7166  10.7904  10.8444  11.0383  11.0591  11.1629
    11.2460  11.2774  11.4119  11.5523  11.5637  11.6398  11.7737  11.7764
    11.9381  12.1031  12.2517  12.2625  12.3419  12.4579  12.4813  12.6278
    12.7271  12.9395  12.9786  13.0865  13.1375  13.1721  13.1872  13.4098
    13.4147  13.4817  13.4877

          k = 0.0442 0.0255 0.0000 ( 34862 PWs)   bands (ev):

   -16.7276  -5.8918  -4.7551  -4.5860  -3.7644  -3.7230  -3.6340  -3.2160
    -3.1458  -2.9587  -2.7088  -2.5021  -2.4551  -2.1846  -2.1739  -1.9892
    -1.9295  -1.8646  -1.7701  -1.7289  -1.7246  -1.4266  -1.4199  -1.3204
    -1.2932  -1.2825  -1.2434  -1.2391  -1.2057  -1.1773  -1.1567  -1.0990
    -0.9706  -0.9197  -0.9168  -0.9017  -0.8945  -0.7724  -0.7692  -0.7387
    -0.7377  -0.7149  -0.6565  -0.5998  -0.5955  -0.5664  -0.4587  -0.4427
    -0.4373  -0.3803  -0.3380  -0.3191  -0.2766  -0.2702  -0.2568  -0.2456
    -0.1837  -0.1211  -0.0962  -0.0848  -0.0646  -0.0125   0.0134   0.0591
     0.1437   0.1496   0.1687   0.1723   0.1946   0.2310   0.2369   0.2504
     0.2967   0.3073   0.3210   0.3569   0.3682   0.3844   0.4128   0.4297
     0.4345   0.4743   0.5122   0.5295   0.5629   0.5674   0.5763   0.5914
     0.6118   0.6127   0.6342   0.6502   0.6593   0.6849   0.7007   0.7092
     0.7132   0.7284   0.7591   0.7642   0.7826   0.7904   0.8228   0.8325
     0.8553   0.8558   0.8700   0.8845   0.8845   0.9160   0.9415   0.9518
     0.9678   0.9973   0.9978   1.0438   1.0793   1.0860   1.1321   1.1378
     1.1395   1.2383   1.2407   1.2546   1.2788   1.2833   1.3001   1.3227
     1.3436   1.3573   1.3623   1.3686   1.3733   1.4355   1.4614   1.5109
     1.5753   1.5790   1.5978   1.6039   1.6171   1.6254   1.6864   1.7139
     1.7189   1.7322   1.7483   1.7485   1.7762   1.7783   1.8019   1.8155
     1.8501   1.8710   1.8939   1.9120   1.9256   1.9613   1.9628   1.9672
     1.9710   2.0019   2.0242   2.0252   2.0592   2.0788   2.0854   2.1089
     2.1369   2.1502   2.1528   2.1744   2.1821   2.1914   2.2356   2.2551
     2.2715   2.2716   2.2858   2.2920   2.2955   2.3058   2.3274   2.3324
     2.3682   2.3975   2.3992   2.4240   2.4378   2.4428   2.4521   2.5296
     2.5760   2.6263   2.8140   2.8931   2.9165   2.9900   3.1067   3.1407
     3.3117   3.3486   3.6429   3.8596   4.1487   4.2846   4.3164   4.6268
     4.6530   4.7827   5.0826   5.1638   5.3049   5.4728   5.7718   5.9655
     6.3902   6.5130   6.5905   6.8331   6.9459   7.0783   7.2221   7.3857
     7.5548   8.0386   8.1427   8.2840   8.5082   8.5282   8.9856   8.9865
     9.0643   9.1284   9.1826   9.1994   9.2434   9.2844   9.3632   9.4185
     9.5535   9.5655   9.6612   9.8559   9.9630  10.1221  10.2417  10.4325
    10.4664  10.6914  10.7172  10.7906  10.8441  11.0375  11.0606  11.1616
    11.2463  11.2775  11.4122  11.5533  11.5648  11.6368  11.7726  11.7780
    11.9382  12.1027  12.2518  12.2625  12.3415  12.4580  12.4811  12.6282
    12.7273  12.9397  12.9786  13.0869  13.1376  13.1733  13.1859  13.4107
    13.4144  13.4805  13.4892

          k = 0.0442 0.0765 0.0000 ( 34881 PWs)   bands (ev):

   -16.7275  -5.1373  -5.1306  -5.0775  -3.9713  -3.9378  -3.8324  -3.1393
    -3.0339  -2.8424  -2.2893  -2.2871  -2.2770  -2.1809  -2.1639  -1.9726
    -1.6736  -1.6588  -1.6559  -1.6338  -1.6284  -1.6060  -1.6015  -1.5987
    -1.5481  -1.3904  -1.3866  -1.2995  -1.1583  -1.1509  -1.1444  -1.0672
    -1.0622  -1.0525  -1.0355  -1.0323  -1.0080  -0.9233  -0.9134  -0.8330
    -0.5824  -0.5702  -0.5557  -0.5505  -0.5455  -0.5430  -0.5378  -0.5193
    -0.4880  -0.2246  -0.2178  -0.2067  -0.1761  -0.1707  -0.1681  -0.1439
    -0.1321  -0.0882  -0.0650  -0.0444  -0.0095   0.0032   0.0304   0.0482
     0.0653   0.0867   0.0881   0.1187   0.1248   0.2067   0.2190   0.2750
     0.2923   0.3012   0.3036   0.3601   0.3763   0.3811   0.4053   0.4089
     0.4096   0.4172   0.4208   0.4222   0.4346   0.4688   0.4796   0.4845
     0.4970   0.5026   0.5064   0.5157   0.5205   0.6100   0.6959   0.6974
     0.7252   0.7690   0.7691   0.7851   0.7922   0.8027   0.8045   0.8544
     0.8581   0.8606   0.8938   0.8955   0.9347   0.9436   0.9593   0.9997
     1.0221   1.0244   1.0916   1.1218   1.1548   1.1764   1.1778   1.1799
     1.2205   1.2385   1.2472   1.2500   1.2566   1.2605   1.2662   1.3053
     1.3171   1.3306   1.3482   1.3610   1.3696   1.4282   1.4431   1.4560
     1.4726   1.5425   1.5509   1.5805   1.5834   1.5958   1.5985   1.6315
     1.6693   1.6731   1.6737   1.6889   1.7087   1.7169   1.7179   1.7330
     1.7917   1.7941   1.8187   1.8424   1.8756   1.8904   1.8946   1.9442
     2.0042   2.0231   2.0722   2.0858   2.0971   2.1276   2.1438   2.1822
     2.1998   2.2123   2.2160   2.2375   2.2400   2.2667   2.2724   2.2822
     2.3055   2.3063   2.3215   2.3316   2.3336   2.3368   2.4102   2.4146
     2.4169   2.4243   2.4291   2.4475   2.4476   2.4572   2.5909   2.6509
     2.8056   3.0382   3.0648   3.0698   3.2951   3.3544   3.3856   3.7026
     3.8187   3.8574   3.9241   3.9679   4.0817   4.4499   4.4972   4.5287
     4.7656   4.8289   4.9568   5.0795   5.1401   5.2867   5.3181   5.3597
     5.4379   5.4965   5.5048   6.2044   6.6197   6.7165   7.4778   7.7200
     7.7269   7.7637   7.8770   7.8776   8.1549   8.4119   8.4780   8.4898
     8.8965   8.9452   8.9868   9.1596   9.1644   9.2139   9.3443   9.3777
     9.4067   9.7915   9.8022   9.9032  10.2163  10.2520  10.4638  10.8815
    10.8932  10.9570  11.1363  11.1864  11.2551  11.2703  11.2995  11.5996
    11.8375  11.8571  11.8653  11.9283  11.9421  11.9514  11.9655  12.0191
    12.1349  12.2269  12.2306  12.4162  12.6596  12.6766  12.6793  12.7250
    12.7393  12.7564  12.8282  12.8322  12.8490  13.0217  13.1464  13.1902
    13.2046  13.3348  13.5587

          k = 0.0442-0.0255 0.0000 ( 34862 PWs)   bands (ev):

   -16.7276  -5.8918  -4.7551  -4.5860  -3.7644  -3.7230  -3.6340  -3.2160
    -3.1458  -2.9587  -2.7088  -2.5021  -2.4551  -2.1846  -2.1739  -1.9892
    -1.9295  -1.8646  -1.7701  -1.7289  -1.7246  -1.4266  -1.4199  -1.3204
    -1.2932  -1.2825  -1.2434  -1.2391  -1.2057  -1.1773  -1.1567  -1.0990
    -0.9706  -0.9197  -0.9168  -0.9017  -0.8945  -0.7724  -0.7691  -0.7387
    -0.7377  -0.7149  -0.6565  -0.5998  -0.5955  -0.5664  -0.4588  -0.4427
    -0.4373  -0.3803  -0.3380  -0.3191  -0.2766  -0.2702  -0.2568  -0.2456
    -0.1837  -0.1211  -0.0962  -0.0848  -0.0646  -0.0125   0.0134   0.0591
     0.1437   0.1496   0.1687   0.1723   0.1946   0.2310   0.2369   0.2504
     0.2967   0.3073   0.3210   0.3569   0.3682   0.3844   0.4128   0.4297
     0.4345   0.4743   0.5122   0.5295   0.5629   0.5674   0.5763   0.5914
     0.6118   0.6127   0.6342   0.6502   0.6593   0.6849   0.7007   0.7092
     0.7132   0.7284   0.7591   0.7642   0.7826   0.7904   0.8228   0.8325
     0.8553   0.8558   0.8700   0.8845   0.8845   0.9160   0.9415   0.9518
     0.9678   0.9973   0.9978   1.0438   1.0793   1.0860   1.1321   1.1378
     1.1395   1.2383   1.2407   1.2546   1.2788   1.2833   1.3001   1.3227
     1.3436   1.3573   1.3623   1.3686   1.3733   1.4355   1.4614   1.5109
     1.5753   1.5790   1.5978   1.6039   1.6171   1.6254   1.6864   1.7139
     1.7189   1.7322   1.7483   1.7485   1.7762   1.7783   1.8019   1.8155
     1.8501   1.8710   1.8939   1.9120   1.9256   1.9613   1.9628   1.9672
     1.9710   2.0019   2.0242   2.0253   2.0592   2.0788   2.0854   2.1089
     2.1369   2.1502   2.1528   2.1744   2.1821   2.1914   2.2356   2.2551
     2.2715   2.2716   2.2858   2.2920   2.2955   2.3058   2.3274   2.3324
     2.3682   2.3974   2.3992   2.4240   2.4378   2.4428   2.4521   2.5296
     2.5760   2.6263   2.8140   2.8931   2.9165   2.9900   3.1067   3.1407
     3.3117   3.3486   3.6429   3.8596   4.1486   4.2846   4.3164   4.6268
     4.6530   4.7827   5.0826   5.1638   5.3049   5.4728   5.7718   5.9655
     6.3902   6.5130   6.5905   6.8330   6.9460   7.0783   7.2221   7.3857
     7.5548   8.0393   8.1419   8.2836   8.5085   8.5282   8.9856   8.9865
     9.0642   9.1281   9.1844   9.1981   9.2439   9.2842   9.3624   9.4192
     9.5535   9.5656   9.6614   9.8560   9.9629  10.1218  10.2415  10.4324
    10.4663  10.6916  10.7167  10.7904  10.8443  11.0381  11.0594  11.1630
    11.2461  11.2774  11.4116  11.5523  11.5636  11.6400  11.7734  11.7768
    11.9382  12.1032  12.2517  12.2626  12.3419  12.4580  12.4814  12.6280
    12.7267  12.9392  12.9785  13.0865  13.1372  13.1723  13.1873  13.4104
    13.4147  13.4812  13.4871

     the Fermi energy is     2.1739 ev

!    total energy              =   -3656.61600861 Ry
     Harris-Foulkes estimate   =   -3656.61598318 Ry
     estimated scf accuracy    <       0.00000027 Ry

     The total energy is the sum of the following terms:

     one-electron contribution =  -24384.76316190 Ry
     hartree contribution      =   12594.12553926 Ry
     xc contribution           =   -1514.31449583 Ry
     ewald contribution        =    9648.49956713 Ry
     electric field correction =       0.00003738 Ry
     smearing contrib. (-TS)   =      -0.16349464 Ry

     total magnetization       =    22.04 Bohr mag/cell
     absolute magnetization    =    25.75 Bohr mag/cell

     convergence has been achieved in  12 iterations

     Forces acting on atoms (Ry/au):


     negative rho (up, down):  2.929E-04 2.250E-04
     atom    1 type  1   force =    -0.00003166    0.00003595    0.00457552
     atom    2 type  1   force =    -0.00000079    0.00086347   -0.00494778
     atom    3 type  1   force =     0.00004384    0.00000184   -0.00003054
     atom    4 type  1   force =    -0.00000936   -0.00036161    0.00002568
     atom    5 type  1   force =     0.00069100    0.00039267    0.00518215
     atom    6 type  1   force =    -0.00107644   -0.00062839   -0.00313759
     atom    7 type  1   force =     0.00003013    0.00003717   -0.00003028
     atom    8 type  1   force =    -0.00028959    0.00016709    0.00004188
     atom    9 type  1   force =     0.00001575   -0.00003792    0.00457201
     atom   10 type  1   force =     0.00075491   -0.00042052   -0.00494739
     atom   11 type  1   force =     0.00001685    0.00001512    0.00044812
     atom   12 type  1   force =     0.00012714    0.00007543   -0.00056849
     atom   13 type  1   force =     0.00003774    0.00002113    0.00458116
     atom   14 type  1   force =    -0.00064445   -0.00038084   -0.00477290
     atom   15 type  1   force =    -0.00004846   -0.00002092   -0.00002628
     atom   16 type  1   force =     0.00024836   -0.00016072   -0.00049188
     atom   17 type  1   force =    -0.00001039   -0.00039843    0.00435036
     atom   18 type  1   force =     0.00105985   -0.00063629   -0.00314006
     atom   19 type  1   force =    -0.00002084   -0.00000834   -0.00161925
     atom   20 type  1   force =     0.00029065    0.00017805    0.00004184
     atom   21 type  1   force =    -0.00034556    0.00019433    0.00435047
     atom   22 type  1   force =    -0.00001484    0.00124947   -0.00313719
     atom   23 type  1   force =    -0.00003485   -0.00003091   -0.00002924
     atom   24 type  1   force =    -0.00000485    0.00028818   -0.00049060
     atom   25 type  1   force =    -0.00000655   -0.00078303    0.00518899
     atom   26 type  1   force =     0.00064416   -0.00036273   -0.00477236
     atom   27 type  1   force =     0.00000530   -0.00000643    0.00041381
     atom   28 type  1   force =    -0.00023817   -0.00014860   -0.00049513
     atom   29 type  1   force =    -0.00068085    0.00037925    0.00518517
     atom   30 type  1   force =     0.00001565    0.00072870   -0.00477547
     atom   31 type  1   force =    -0.00000972    0.00003216   -0.00002164
     atom   32 type  1   force =     0.00001240   -0.00013875   -0.00056236
     atom   33 type  1   force =     0.00032858    0.00019652    0.00434328
     atom   34 type  1   force =    -0.00074076   -0.00041092   -0.00494815
     atom   35 type  1   force =     0.00001772   -0.00001703   -0.00002665
     atom   36 type  1   force =    -0.00012226    0.00008709   -0.00056328
     atom   37 type  2   force =    -0.00000963    0.00000877    0.00023406

     Total force =     0.019693     Total SCF correction =     0.002295
     SCF correction compared to forces is large: reduce conv_thr to get better values
 !ASE

     Writing output data file calc.save
 
     init_run     :     26.52s CPU     31.11s WALL (       1 calls)
     electrons    :  12934.60s CPU  14934.47s WALL (       8 calls)
     update_pot   :     16.03s CPU     16.96s WALL (       7 calls)
     forces       :    369.99s CPU    381.63s WALL (       8 calls)

     Called by init_run:
     wfcinit      :     17.54s CPU     21.40s WALL (       1 calls)
     potinit      :      0.93s CPU      1.03s WALL (       1 calls)

     Called by electrons:
     c_bands      :   8511.62s CPU  10045.05s WALL (     200 calls)
     sum_band     :   3192.50s CPU   3574.16s WALL (     200 calls)
     v_of_rho     :     69.70s CPU     81.19s WALL (     208 calls)
     newd         :   1187.78s CPU   1258.42s WALL (     208 calls)
     mix_rho      :     13.58s CPU     16.70s WALL (     200 calls)

     Called by c_bands:
     init_us_2    :     46.10s CPU     49.38s WALL (    4090 calls)
     cegterg      :   8243.97s CPU   9765.48s WALL (    2000 calls)

     Called by *egterg:
     h_psi        :   4310.73s CPU   5522.39s WALL (    5201 calls)
     s_psi        :    691.69s CPU    714.50s WALL (    5201 calls)
     g_psi        :     17.25s CPU     17.55s WALL (    3191 calls)
     cdiaghg      :   1341.97s CPU   1371.93s WALL (    5121 calls)

     Called by h_psi:
     add_vuspsi   :    699.24s CPU    721.76s WALL (    5201 calls)

     General routines
     calbec       :   1084.04s CPU   1108.56s WALL (    7281 calls)
     fft          :     61.96s CPU     74.07s WALL (    6520 calls)
     ffts         :      1.03s CPU      1.43s WALL (     816 calls)
     fftw         :   2345.73s CPU   3765.54s WALL ( 3006486 calls)
     interpolate  :      7.63s CPU     11.30s WALL (     816 calls)
     davcio       :      0.03s CPU      0.56s WALL (      10 calls)
 
     Parallel routines
     fft_scatter  :   1367.18s CPU   2206.75s WALL ( 3013822 calls)
 
     PWSCF        :     3h43m CPU        4h16m WALL

 
   This run was terminated on:  19:26:29  10Mar2017            

=------------------------------------------------------------------------------=
   JOB DONE.
=------------------------------------------------------------------------------=
