  python dir          : /home/vossj/suncat/lib/python2.7/site-packages/espresso
  espresso dir        : /home/vossj/suncat/esdld/espresso-dynpy-beef/bin
  pseudo dir          : /home/alatimer/bin/psp/esp_psp_w_gbrvRu/
  ase-espresso py git : ffa2778-git



     Program PWSCF v.5.1rc2 (svn rev. ) starts on 21Feb2018 at  3:13:33 

     This program is part of the open-source Quantum ESPRESSO suite
     for quantum simulation of materials; please cite
         "P. Giannozzi et al., J. Phys.:Condens. Matter 21 395502 (2009);
          URL http://www.quantum-espresso.org", 
     in publications or presentations arising from this work. More details at
     http://www.quantum-espresso.org/quote

     Parallel version (MPI), running on    16 processors
     R & G space division:  proc/nbgrp/npool/nimage =      16
     Reading input from pw.inp
     Message from routine read_cards :
     DEPRECATED: no units specified in CELL_PARAMETERS card

     Current dimensions of program PWSCF are:
     Max number of different atomic species (ntypx) = 10
     Max number of k-points (npk) =  40000
     Max angular momentum in pseudopotentials (lmaxx) =  3
     Presently no symmetry can be used with electric field


     IMPORTANT: XC functional enforced from input :
     Exchange-correlation      = RPBE ( 1  4 28  4 0)
     Any further DFT definition will be discarded
     Please, verify this is what you really want


     Subspace diagonalization in iterative solution of the eigenvalue problem:
     a serial algorithm will be used

     Found symmetry operation: I + ( -0.0000  0.3333  0.0000)
     This is a supercell, fractional translations are disabled
 
     Parallelization info
     --------------------
     sticks:   dense  smooth     PW     G-vecs:    dense   smooth      PW
     Min         636     254     68               100790    25480    3562
     Max         637     255     69               100796    25523    3569
     Sum       10181    4073   1103              1612669   408063   57071
 
     Generating pointlists ...
     new r_m :   0.4125 (alat units)  0.7795 (a.u.) for type    1


     bravais-lattice index     =            0
     lattice parameter (alat)  =       1.8897  a.u.
     unit-cell volume          =   10312.9744 (a.u.)^3
     number of atoms/cell      =           36
     number of atomic types    =            1
     number of electrons       =       324.00
     number of Kohn-Sham states=          262
     kinetic-energy cutoff     =      44.0992  Ry
     charge density cutoff     =     440.9919  Ry
     convergence threshold     =      7.3E-07
     mixing beta               =       0.1000
     number of iterations used =           10  plain     mixing
     Exchange-correlation      = RPBE ( 1  4 28  4 0)
     nstep                     =           50


     celldm(1)=   1.889726  celldm(2)=   0.000000  celldm(3)=   0.000000
     celldm(4)=   0.000000  celldm(5)=   0.000000  celldm(6)=   0.000000

     crystal axes: (cart. coord. in units of alat)
               a(1) = (  13.134537   0.000000   0.000000 )  
               a(2) = (  -4.378179   6.191680   0.000000 )  
               a(3) = (   0.000000   0.000000  18.791614 )  

     reciprocal axes: (cart. coord. in units 2 pi/alat)
               b(1) = (  0.076135  0.053836  0.000000 )  
               b(2) = (  0.000000  0.161507  0.000000 )  
               b(3) = (  0.000000  0.000000  0.053215 )  


     PseudoPot. # 1 for Co read from file:
     /home/alatimer/bin/psp/esp_psp_w_gbrvRu/Co.UPF
     MD5 check sum: f36dda9fe147c5f42efc2a4f7ec0da3d
     Pseudo is Ultrasoft + core correction, Zval =  9.0
     Generated by new atomic code, or converted to UPF format
     Using radial grid of  937 points,  3 beta functions with: 
                l(1) =   1
                l(2) =   2
                l(3) =   2
     Q(r) pseudized with  8 coefficients,  rinner =    1.000   1.000   1.000
                                                       1.000   1.000

     atomic species   valence    mass     pseudopotential
        Co1            9.00    58.93320     Co( 1.00)

     Starting magnetic structure 
     atomic species   magnetization
        Co1          0.444

     No symmetry found



   Cartesian axes

     site n.     atom                  positions (alat units)
         1           Co1 tau(   1) = (   0.0000000   0.0000000   7.5000000  )
         2           Co1 tau(   2) = (   2.1890894   0.0000000   8.7638714  )
         3           Co1 tau(   3) = (   0.0000000   0.0000000  10.0277427  )
         4           Co1 tau(   4) = (   2.1890894   0.0000000  11.2916141  )
         5           Co1 tau(   5) = (  -1.4593930   2.0638933   7.5000000  )
         6           Co1 tau(   6) = (   0.7296965   2.0638933   8.7638714  )
         7           Co1 tau(   7) = (  -1.4593930   2.0638933  10.0277427  )
         8           Co1 tau(   8) = (   0.7296965   2.0638933  11.2916141  )
         9           Co1 tau(   9) = (  -2.9187859   4.1277866   7.5000000  )
        10           Co1 tau(  10) = (  -0.7296965   4.1277866   8.7638714  )
        11           Co1 tau(  11) = (  -2.9187859   4.1277866  10.0277427  )
        12           Co1 tau(  12) = (  -0.7296965   4.1277866  11.2916141  )
        13           Co1 tau(  13) = (   4.3781789   0.0000000   7.5000000  )
        14           Co1 tau(  14) = (   6.5672683   0.0000000   8.7638714  )
        15           Co1 tau(  15) = (   4.3781789   0.0000000  10.0277427  )
        16           Co1 tau(  16) = (   6.5672683   0.0000000  11.2916141  )
        17           Co1 tau(  17) = (   2.9187859   2.0638933   7.5000000  )
        18           Co1 tau(  18) = (   5.1078753   2.0638933   8.7638714  )
        19           Co1 tau(  19) = (   2.9187859   2.0638933  10.0277427  )
        20           Co1 tau(  20) = (   5.1078753   2.0638933  11.2916141  )
        21           Co1 tau(  21) = (   1.4593930   4.1277866   7.5000000  )
        22           Co1 tau(  22) = (   3.6484824   4.1277866   8.7638714  )
        23           Co1 tau(  23) = (   1.4593930   4.1277866  10.0277427  )
        24           Co1 tau(  24) = (   3.6484824   4.1277866  11.2916141  )
        25           Co1 tau(  25) = (   8.7563577   0.0000000   7.5000000  )
        26           Co1 tau(  26) = (  10.9454471   0.0000000   8.7638714  )
        27           Co1 tau(  27) = (   8.7563577   0.0000000  10.0277427  )
        28           Co1 tau(  28) = (  10.9454471   0.0000000  11.2916141  )
        29           Co1 tau(  29) = (   7.2969648   2.0638933   7.5000000  )
        30           Co1 tau(  30) = (   9.4860542   2.0638933   8.7638714  )
        31           Co1 tau(  31) = (   7.2969648   2.0638933  10.0277427  )
        32           Co1 tau(  32) = (   9.4860542   2.0638933  11.2916141  )
        33           Co1 tau(  33) = (   5.8375718   4.1277866   7.5000000  )
        34           Co1 tau(  34) = (   8.0266612   4.1277866   8.7638714  )
        35           Co1 tau(  35) = (   5.8375718   4.1277866  10.0277427  )
        36           Co1 tau(  36) = (   8.0266612   4.1277866  11.2916141  )

     number of k points=    10  Fermi-Dirac smearing, width (Ry)=  0.0073
                       cart. coord. in units 2pi/alat
        k(    1) = (   0.0000000   0.0000000   0.0000000), wk =   0.1111111
        k(    2) = (   0.0000000   0.0538357   0.0000000), wk =   0.2222222
        k(    3) = (   0.0253784   0.0179452   0.0000000), wk =   0.2222222
        k(    4) = (   0.0253784   0.0717809   0.0000000), wk =   0.2222222
        k(    5) = (   0.0253784  -0.0358905   0.0000000), wk =   0.2222222
        k(    6) = (   0.0000000   0.0000000   0.0000000), wk =   0.1111111
        k(    7) = (   0.0000000   0.0538357   0.0000000), wk =   0.2222222
        k(    8) = (   0.0253784   0.0179452   0.0000000), wk =   0.2222222
        k(    9) = (   0.0253784   0.0717809   0.0000000), wk =   0.2222222
        k(   10) = (   0.0253784  -0.0358905   0.0000000), wk =   0.2222222

     Dense  grid:  1612669 G-vectors     FFT dimensions: ( 180,  96, 240)

     Smooth grid:   408063 G-vectors     FFT dimensions: ( 108,  64, 160)

     Largest allocated arrays     est. size (Mb)     dimensions
        Kohn-Sham Wavefunctions        12.82 Mb     (    3206,  262)
        NL pseudopotentials            22.89 Mb     (    3206,  468)
        Each V/rho on FFT grid          7.91 Mb     (  259200,   2)
        Each G-vector array             0.77 Mb     (  100790)
        G-vector shells                 0.34 Mb     (   44082)
     Largest temporary arrays     est. size (Mb)     dimensions
        Auxiliary wavefunctions        51.27 Mb     (    3206, 1048)
        Each subspace H/S matrix       16.76 Mb     (    1048, 1048)
        Each <psi_i|beta_j> matrix      1.87 Mb     (     468,  262)
        Arrays for rho mixing          39.55 Mb     (  259200,   10)

     Initial potential from superposition of free atoms
     Check: negative starting charge=(component1):   -0.002805
     Check: negative starting charge=(component2):   -0.001079

     starting charge  323.99032, renormalised to  324.00000

     negative rho (up, down):  2.805E-03 1.079E-03
 
     Adding external electric field

     Computed dipole along edir(3) : 
        Dipole                0.0000 Ry au,          0.0000 Debye
        Dipole field          0.0000 Ry au
 
        Potential amp.       -0.0000 Ry
        Total length         34.6232 bohr
 
 
     Adding external electric field

     Computed dipole along edir(3) : 
        Dipole                0.0000 Ry au,          0.0000 Debye
        Dipole field          0.0000 Ry au
 
        Potential amp.       -0.0000 Ry
        Total length         34.6232 bohr
 
     Starting wfc are  324 randomized atomic wfcs

     total cpu time spent up to now is       42.3 secs

     Self-consistent Calculation

     iteration #  1     ecut=    44.10 Ry     beta=0.10
     Davidson diagonalization with overlap
     ethr =  1.00E-02,  avg # of iterations =  6.9

     negative rho (up, down):  2.774E-03 1.113E-03
 
     Adding external electric field

     Computed dipole along edir(3) : 
        Dipole               -0.0002 Ry au,         -0.0006 Debye
        Dipole field         -0.0000 Ry au
 
        Potential amp.        0.0000 Ry
        Total length         34.6232 bohr
 
 
     Adding external electric field

     Computed dipole along edir(3) : 
        Dipole               -0.0002 Ry au,         -0.0006 Debye
        Dipole field         -0.0000 Ry au
 
        Potential amp.        0.0000 Ry
        Total length         34.6232 bohr
 
 
     Magnetic moment per site:
     atom:    1    charge:    3.1934    magn:    1.4050    constr:    0.0000
     atom:    2    charge:    3.2417    magn:    1.3597    constr:    0.0000
     atom:    3    charge:    3.2417    magn:    1.3597    constr:    0.0000
     atom:    4    charge:    3.1934    magn:    1.4050    constr:    0.0000
     atom:    5    charge:    3.1934    magn:    1.4050    constr:    0.0000
     atom:    6    charge:    3.2417    magn:    1.3597    constr:    0.0000
     atom:    7    charge:    3.2417    magn:    1.3597    constr:    0.0000
     atom:    8    charge:    3.1934    magn:    1.4050    constr:    0.0000
     atom:    9    charge:    3.1934    magn:    1.4050    constr:    0.0000
     atom:   10    charge:    3.2417    magn:    1.3597    constr:    0.0000
     atom:   11    charge:    3.2417    magn:    1.3597    constr:    0.0000
     atom:   12    charge:    3.1934    magn:    1.4050    constr:    0.0000
     atom:   13    charge:    3.1934    magn:    1.4050    constr:    0.0000
     atom:   14    charge:    3.2417    magn:    1.3597    constr:    0.0000
     atom:   15    charge:    3.2417    magn:    1.3597    constr:    0.0000
     atom:   16    charge:    3.1934    magn:    1.4050    constr:    0.0000
     atom:   17    charge:    3.1934    magn:    1.4050    constr:    0.0000
     atom:   18    charge:    3.2417    magn:    1.3597    constr:    0.0000
     atom:   19    charge:    3.2417    magn:    1.3597    constr:    0.0000
     atom:   20    charge:    3.1934    magn:    1.4050    constr:    0.0000
     atom:   21    charge:    3.1934    magn:    1.4050    constr:    0.0000
     atom:   22    charge:    3.2417    magn:    1.3597    constr:    0.0000
     atom:   23    charge:    3.2417    magn:    1.3597    constr:    0.0000
     atom:   24    charge:    3.1934    magn:    1.4050    constr:    0.0000
     atom:   25    charge:    3.1934    magn:    1.4050    constr:    0.0000
     atom:   26    charge:    3.2417    magn:    1.3597    constr:    0.0000
     atom:   27    charge:    3.2417    magn:    1.3597    constr:    0.0000
     atom:   28    charge:    3.1934    magn:    1.4050    constr:    0.0000
     atom:   29    charge:    3.1934    magn:    1.4050    constr:    0.0000
     atom:   30    charge:    3.2417    magn:    1.3597    constr:    0.0000
     atom:   31    charge:    3.2417    magn:    1.3597    constr:    0.0000
     atom:   32    charge:    3.1934    magn:    1.4050    constr:    0.0000
     atom:   33    charge:    3.1934    magn:    1.4050    constr:    0.0000
     atom:   34    charge:    3.2417    magn:    1.3597    constr:    0.0000
     atom:   35    charge:    3.2417    magn:    1.3597    constr:    0.0000
     atom:   36    charge:    3.1934    magn:    1.4050    constr:    0.0000

     total cpu time spent up to now is      172.6 secs

     total energy              =   -2880.84947766 Ry
     Harris-Foulkes estimate   =   -2883.50312704 Ry
     estimated scf accuracy    <      18.86558479 Ry

     total magnetization       =    74.28 Bohr mag/cell
     absolute magnetization    =    74.30 Bohr mag/cell

     iteration #  2     ecut=    44.10 Ry     beta=0.10
     Davidson diagonalization with overlap
     ethr =  5.82E-03,  avg # of iterations =  1.2

     negative rho (up, down):  3.239E-03 1.966E-03
 
     Adding external electric field

     Computed dipole along edir(3) : 
        Dipole               -0.0002 Ry au,         -0.0004 Debye
        Dipole field         -0.0000 Ry au
 
        Potential amp.        0.0000 Ry
        Total length         34.6232 bohr
 
 
     Adding external electric field

     Computed dipole along edir(3) : 
        Dipole               -0.0002 Ry au,         -0.0004 Debye
        Dipole field         -0.0000 Ry au
 
        Potential amp.        0.0000 Ry
        Total length         34.6232 bohr
 
 
     Magnetic moment per site:
     atom:    1    charge:    3.2194    magn:    1.3736    constr:    0.0000
     atom:    2    charge:    3.2186    magn:    1.3623    constr:    0.0000
     atom:    3    charge:    3.2185    magn:    1.3623    constr:    0.0000
     atom:    4    charge:    3.2194    magn:    1.3736    constr:    0.0000
     atom:    5    charge:    3.2194    magn:    1.3736    constr:    0.0000
     atom:    6    charge:    3.2185    magn:    1.3623    constr:    0.0000
     atom:    7    charge:    3.2186    magn:    1.3623    constr:    0.0000
     atom:    8    charge:    3.2194    magn:    1.3736    constr:    0.0000
     atom:    9    charge:    3.2194    magn:    1.3736    constr:    0.0000
     atom:   10    charge:    3.2186    magn:    1.3623    constr:    0.0000
     atom:   11    charge:    3.2185    magn:    1.3623    constr:    0.0000
     atom:   12    charge:    3.2194    magn:    1.3736    constr:    0.0000
     atom:   13    charge:    3.2194    magn:    1.3736    constr:    0.0000
     atom:   14    charge:    3.2186    magn:    1.3623    constr:    0.0000
     atom:   15    charge:    3.2185    magn:    1.3623    constr:    0.0000
     atom:   16    charge:    3.2194    magn:    1.3736    constr:    0.0000
     atom:   17    charge:    3.2194    magn:    1.3736    constr:    0.0000
     atom:   18    charge:    3.2185    magn:    1.3623    constr:    0.0000
     atom:   19    charge:    3.2185    magn:    1.3623    constr:    0.0000
     atom:   20    charge:    3.2194    magn:    1.3736    constr:    0.0000
     atom:   21    charge:    3.2194    magn:    1.3736    constr:    0.0000
     atom:   22    charge:    3.2185    magn:    1.3623    constr:    0.0000
     atom:   23    charge:    3.2185    magn:    1.3623    constr:    0.0000
     atom:   24    charge:    3.2194    magn:    1.3736    constr:    0.0000
     atom:   25    charge:    3.2194    magn:    1.3736    constr:    0.0000
     atom:   26    charge:    3.2186    magn:    1.3623    constr:    0.0000
     atom:   27    charge:    3.2185    magn:    1.3623    constr:    0.0000
     atom:   28    charge:    3.2194    magn:    1.3736    constr:    0.0000
     atom:   29    charge:    3.2194    magn:    1.3736    constr:    0.0000
     atom:   30    charge:    3.2185    magn:    1.3623    constr:    0.0000
     atom:   31    charge:    3.2185    magn:    1.3623    constr:    0.0000
     atom:   32    charge:    3.2194    magn:    1.3736    constr:    0.0000
     atom:   33    charge:    3.2194    magn:    1.3736    constr:    0.0000
     atom:   34    charge:    3.2185    magn:    1.3623    constr:    0.0000
     atom:   35    charge:    3.2185    magn:    1.3623    constr:    0.0000
     atom:   36    charge:    3.2194    magn:    1.3736    constr:    0.0000

     total cpu time spent up to now is      258.1 secs

     total energy              =   -2881.37163791 Ry
     Harris-Foulkes estimate   =   -2884.93607644 Ry
     estimated scf accuracy    <      63.09753902 Ry

     total magnetization       =    74.79 Bohr mag/cell
     absolute magnetization    =    74.82 Bohr mag/cell

     iteration #  3     ecut=    44.10 Ry     beta=0.10
     Davidson diagonalization with overlap
     ethr =  5.82E-03,  avg # of iterations =  1.0

     negative rho (up, down):  3.161E-03 2.111E-03
 
     Adding external electric field

     Computed dipole along edir(3) : 
        Dipole               -0.0000 Ry au,         -0.0001 Debye
        Dipole field         -0.0000 Ry au
 
        Potential amp.        0.0000 Ry
        Total length         34.6232 bohr
 
 
     Adding external electric field

     Computed dipole along edir(3) : 
        Dipole               -0.0000 Ry au,         -0.0001 Debye
        Dipole field         -0.0000 Ry au
 
        Potential amp.        0.0000 Ry
        Total length         34.6232 bohr
 
 
     Magnetic moment per site:
     atom:    1    charge:    3.2353    magn:    1.2940    constr:    0.0000
     atom:    2    charge:    3.2055    magn:    1.2839    constr:    0.0000
     atom:    3    charge:    3.2055    magn:    1.2838    constr:    0.0000
     atom:    4    charge:    3.2352    magn:    1.2940    constr:    0.0000
     atom:    5    charge:    3.2353    magn:    1.2940    constr:    0.0000
     atom:    6    charge:    3.2055    magn:    1.2838    constr:    0.0000
     atom:    7    charge:    3.2055    magn:    1.2839    constr:    0.0000
     atom:    8    charge:    3.2353    magn:    1.2940    constr:    0.0000
     atom:    9    charge:    3.2352    magn:    1.2940    constr:    0.0000
     atom:   10    charge:    3.2055    magn:    1.2839    constr:    0.0000
     atom:   11    charge:    3.2055    magn:    1.2838    constr:    0.0000
     atom:   12    charge:    3.2352    magn:    1.2940    constr:    0.0000
     atom:   13    charge:    3.2353    magn:    1.2940    constr:    0.0000
     atom:   14    charge:    3.2055    magn:    1.2839    constr:    0.0000
     atom:   15    charge:    3.2055    magn:    1.2839    constr:    0.0000
     atom:   16    charge:    3.2352    magn:    1.2940    constr:    0.0000
     atom:   17    charge:    3.2352    magn:    1.2940    constr:    0.0000
     atom:   18    charge:    3.2055    magn:    1.2839    constr:    0.0000
     atom:   19    charge:    3.2055    magn:    1.2838    constr:    0.0000
     atom:   20    charge:    3.2352    magn:    1.2940    constr:    0.0000
     atom:   21    charge:    3.2352    magn:    1.2940    constr:    0.0000
     atom:   22    charge:    3.2055    magn:    1.2839    constr:    0.0000
     atom:   23    charge:    3.2055    magn:    1.2839    constr:    0.0000
     atom:   24    charge:    3.2352    magn:    1.2941    constr:    0.0000
     atom:   25    charge:    3.2352    magn:    1.2940    constr:    0.0000
     atom:   26    charge:    3.2055    magn:    1.2839    constr:    0.0000
     atom:   27    charge:    3.2055    magn:    1.2839    constr:    0.0000
     atom:   28    charge:    3.2353    magn:    1.2940    constr:    0.0000
     atom:   29    charge:    3.2353    magn:    1.2940    constr:    0.0000
     atom:   30    charge:    3.2055    magn:    1.2839    constr:    0.0000
     atom:   31    charge:    3.2055    magn:    1.2839    constr:    0.0000
     atom:   32    charge:    3.2352    magn:    1.2940    constr:    0.0000
     atom:   33    charge:    3.2352    magn:    1.2940    constr:    0.0000
     atom:   34    charge:    3.2055    magn:    1.2839    constr:    0.0000
     atom:   35    charge:    3.2055    magn:    1.2839    constr:    0.0000
     atom:   36    charge:    3.2352    magn:    1.2941    constr:    0.0000

     total cpu time spent up to now is      343.3 secs

     total energy              =   -2883.06536602 Ry
     Harris-Foulkes estimate   =   -2882.95659167 Ry
     estimated scf accuracy    <       2.45838613 Ry

     total magnetization       =    76.08 Bohr mag/cell
     absolute magnetization    =    76.10 Bohr mag/cell

     iteration #  4     ecut=    44.10 Ry     beta=0.10
     Davidson diagonalization with overlap
     ethr =  7.59E-04,  avg # of iterations =  8.6

     negative rho (up, down):  3.629E-03 2.592E-03
 
     Adding external electric field

     Computed dipole along edir(3) : 
        Dipole               -0.0022 Ry au,         -0.0056 Debye
        Dipole field         -0.0000 Ry au
 
        Potential amp.        0.0002 Ry
        Total length         34.6232 bohr
 
 
     Adding external electric field

     Computed dipole along edir(3) : 
        Dipole               -0.0022 Ry au,         -0.0056 Debye
        Dipole field         -0.0000 Ry au
 
        Potential amp.        0.0002 Ry
        Total length         34.6232 bohr
 
 
     Magnetic moment per site:
     atom:    1    charge:    3.2259    magn:    1.2572    constr:    0.0000
     atom:    2    charge:    3.2039    magn:    1.2398    constr:    0.0000
     atom:    3    charge:    3.2038    magn:    1.2398    constr:    0.0000
     atom:    4    charge:    3.2260    magn:    1.2571    constr:    0.0000
     atom:    5    charge:    3.2259    magn:    1.2572    constr:    0.0000
     atom:    6    charge:    3.2038    magn:    1.2398    constr:    0.0000
     atom:    7    charge:    3.2038    magn:    1.2398    constr:    0.0000
     atom:    8    charge:    3.2259    magn:    1.2572    constr:    0.0000
     atom:    9    charge:    3.2260    magn:    1.2571    constr:    0.0000
     atom:   10    charge:    3.2038    magn:    1.2398    constr:    0.0000
     atom:   11    charge:    3.2038    magn:    1.2398    constr:    0.0000
     atom:   12    charge:    3.2260    magn:    1.2571    constr:    0.0000
     atom:   13    charge:    3.2259    magn:    1.2571    constr:    0.0000
     atom:   14    charge:    3.2039    magn:    1.2398    constr:    0.0000
     atom:   15    charge:    3.2038    magn:    1.2398    constr:    0.0000
     atom:   16    charge:    3.2260    magn:    1.2571    constr:    0.0000
     atom:   17    charge:    3.2261    magn:    1.2570    constr:    0.0000
     atom:   18    charge:    3.2039    magn:    1.2398    constr:    0.0000
     atom:   19    charge:    3.2038    magn:    1.2398    constr:    0.0000
     atom:   20    charge:    3.2260    magn:    1.2571    constr:    0.0000
     atom:   21    charge:    3.2260    magn:    1.2571    constr:    0.0000
     atom:   22    charge:    3.2039    magn:    1.2398    constr:    0.0000
     atom:   23    charge:    3.2039    magn:    1.2398    constr:    0.0000
     atom:   24    charge:    3.2261    magn:    1.2571    constr:    0.0000
     atom:   25    charge:    3.2260    magn:    1.2571    constr:    0.0000
     atom:   26    charge:    3.2039    magn:    1.2398    constr:    0.0000
     atom:   27    charge:    3.2039    magn:    1.2398    constr:    0.0000
     atom:   28    charge:    3.2259    magn:    1.2572    constr:    0.0000
     atom:   29    charge:    3.2260    magn:    1.2571    constr:    0.0000
     atom:   30    charge:    3.2038    magn:    1.2398    constr:    0.0000
     atom:   31    charge:    3.2039    magn:    1.2398    constr:    0.0000
     atom:   32    charge:    3.2260    magn:    1.2571    constr:    0.0000
     atom:   33    charge:    3.2260    magn:    1.2571    constr:    0.0000
     atom:   34    charge:    3.2039    magn:    1.2398    constr:    0.0000
     atom:   35    charge:    3.2039    magn:    1.2398    constr:    0.0000
     atom:   36    charge:    3.2261    magn:    1.2570    constr:    0.0000

     total cpu time spent up to now is      472.6 secs

     total energy              =   -2883.50162447 Ry
     Harris-Foulkes estimate   =   -2883.29486836 Ry
     estimated scf accuracy    <       1.05925740 Ry

     total magnetization       =    76.38 Bohr mag/cell
     absolute magnetization    =    76.52 Bohr mag/cell

     iteration #  5     ecut=    44.10 Ry     beta=0.10
     Davidson diagonalization with overlap
     ethr =  3.27E-04,  avg # of iterations =  3.1

     negative rho (up, down):  1.558E-02 9.062E-03
 
     Adding external electric field

     Computed dipole along edir(3) : 
        Dipole                0.0917 Ry au,          0.2332 Debye
        Dipole field          0.0001 Ry au
 
        Potential amp.       -0.0077 Ry
        Total length         34.6232 bohr
 
 
     Adding external electric field

     Computed dipole along edir(3) : 
        Dipole                0.0917 Ry au,          0.2332 Debye
        Dipole field          0.0001 Ry au
 
        Potential amp.       -0.0077 Ry
        Total length         34.6232 bohr
 
 
     Magnetic moment per site:
     atom:    1    charge:    3.2169    magn:    1.0782    constr:    0.0000
     atom:    2    charge:    3.1856    magn:    1.0551    constr:    0.0000
     atom:    3    charge:    3.1858    magn:    1.0550    constr:    0.0000
     atom:    4    charge:    3.2145    magn:    1.0803    constr:    0.0000
     atom:    5    charge:    3.2171    magn:    1.0780    constr:    0.0000
     atom:    6    charge:    3.1860    magn:    1.0549    constr:    0.0000
     atom:    7    charge:    3.1860    magn:    1.0548    constr:    0.0000
     atom:    8    charge:    3.2160    magn:    1.0790    constr:    0.0000
     atom:    9    charge:    3.2158    magn:    1.0792    constr:    0.0000
     atom:   10    charge:    3.1862    magn:    1.0547    constr:    0.0000
     atom:   11    charge:    3.1860    magn:    1.0549    constr:    0.0000
     atom:   12    charge:    3.2148    magn:    1.0800    constr:    0.0000
     atom:   13    charge:    3.2153    magn:    1.0796    constr:    0.0000
     atom:   14    charge:    3.1849    magn:    1.0558    constr:    0.0000
     atom:   15    charge:    3.1852    magn:    1.0555    constr:    0.0000
     atom:   16    charge:    3.2136    magn:    1.0811    constr:    0.0000
     atom:   17    charge:    3.2130    magn:    1.0815    constr:    0.0000
     atom:   18    charge:    3.1847    magn:    1.0559    constr:    0.0000
     atom:   19    charge:    3.1852    magn:    1.0555    constr:    0.0000
     atom:   20    charge:    3.2134    magn:    1.0813    constr:    0.0000
     atom:   21    charge:    3.2147    magn:    1.0801    constr:    0.0000
     atom:   22    charge:    3.1842    magn:    1.0562    constr:    0.0000
     atom:   23    charge:    3.1849    magn:    1.0557    constr:    0.0000
     atom:   24    charge:    3.2125    magn:    1.0821    constr:    0.0000
     atom:   25    charge:    3.2143    magn:    1.0805    constr:    0.0000
     atom:   26    charge:    3.1854    magn:    1.0553    constr:    0.0000
     atom:   27    charge:    3.1849    magn:    1.0557    constr:    0.0000
     atom:   28    charge:    3.2154    magn:    1.0796    constr:    0.0000
     atom:   29    charge:    3.2151    magn:    1.0798    constr:    0.0000
     atom:   30    charge:    3.1858    magn:    1.0550    constr:    0.0000
     atom:   31    charge:    3.1848    magn:    1.0558    constr:    0.0000
     atom:   32    charge:    3.2146    magn:    1.0802    constr:    0.0000
     atom:   33    charge:    3.2142    magn:    1.0806    constr:    0.0000
     atom:   34    charge:    3.1852    magn:    1.0555    constr:    0.0000
     atom:   35    charge:    3.1844    magn:    1.0561    constr:    0.0000
     atom:   36    charge:    3.2123    magn:    1.0822    constr:    0.0000

     total cpu time spent up to now is      565.5 secs

     total energy              =   -2884.15218384 Ry
     Harris-Foulkes estimate   =   -2883.54374529 Ry
     estimated scf accuracy    <       0.64555269 Ry

     total magnetization       =    74.41 Bohr mag/cell
     absolute magnetization    =    74.71 Bohr mag/cell

     iteration #  6     ecut=    44.10 Ry     beta=0.10
     Davidson diagonalization with overlap
     ethr =  1.99E-04,  avg # of iterations =  7.5

     negative rho (up, down):  1.526E-02 9.073E-03
 
     Adding external electric field

     Computed dipole along edir(3) : 
        Dipole               -0.0662 Ry au,         -0.1683 Debye
        Dipole field         -0.0001 Ry au
 
        Potential amp.        0.0056 Ry
        Total length         34.6232 bohr
 
 
     Adding external electric field

     Computed dipole along edir(3) : 
        Dipole               -0.0662 Ry au,         -0.1683 Debye
        Dipole field         -0.0001 Ry au
 
        Potential amp.        0.0056 Ry
        Total length         34.6232 bohr
 
 
     Magnetic moment per site:
     atom:    1    charge:    3.2143    magn:    1.0604    constr:    0.0000
     atom:    2    charge:    3.1845    magn:    1.0345    constr:    0.0000
     atom:    3    charge:    3.1848    magn:    1.0342    constr:    0.0000
     atom:    4    charge:    3.2146    magn:    1.0603    constr:    0.0000
     atom:    5    charge:    3.2143    magn:    1.0604    constr:    0.0000
     atom:    6    charge:    3.1848    magn:    1.0343    constr:    0.0000
     atom:    7    charge:    3.1849    magn:    1.0342    constr:    0.0000
     atom:    8    charge:    3.2151    magn:    1.0598    constr:    0.0000
     atom:    9    charge:    3.2138    magn:    1.0609    constr:    0.0000
     atom:   10    charge:    3.1849    magn:    1.0342    constr:    0.0000
     atom:   11    charge:    3.1850    magn:    1.0342    constr:    0.0000
     atom:   12    charge:    3.2146    magn:    1.0602    constr:    0.0000
     atom:   13    charge:    3.2143    magn:    1.0606    constr:    0.0000
     atom:   14    charge:    3.1849    magn:    1.0343    constr:    0.0000
     atom:   15    charge:    3.1850    magn:    1.0342    constr:    0.0000
     atom:   16    charge:    3.2149    magn:    1.0601    constr:    0.0000
     atom:   17    charge:    3.2134    magn:    1.0613    constr:    0.0000
     atom:   18    charge:    3.1849    magn:    1.0343    constr:    0.0000
     atom:   19    charge:    3.1851    magn:    1.0341    constr:    0.0000
     atom:   20    charge:    3.2149    magn:    1.0601    constr:    0.0000
     atom:   21    charge:    3.2140    magn:    1.0608    constr:    0.0000
     atom:   22    charge:    3.1846    magn:    1.0345    constr:    0.0000
     atom:   23    charge:    3.1848    magn:    1.0343    constr:    0.0000
     atom:   24    charge:    3.2145    magn:    1.0605    constr:    0.0000
     atom:   25    charge:    3.2140    magn:    1.0609    constr:    0.0000
     atom:   26    charge:    3.1846    magn:    1.0344    constr:    0.0000
     atom:   27    charge:    3.1851    magn:    1.0341    constr:    0.0000
     atom:   28    charge:    3.2151    magn:    1.0598    constr:    0.0000
     atom:   29    charge:    3.2143    magn:    1.0605    constr:    0.0000
     atom:   30    charge:    3.1848    magn:    1.0343    constr:    0.0000
     atom:   31    charge:    3.1851    magn:    1.0341    constr:    0.0000
     atom:   32    charge:    3.2148    magn:    1.0601    constr:    0.0000
     atom:   33    charge:    3.2141    magn:    1.0608    constr:    0.0000
     atom:   34    charge:    3.1845    magn:    1.0345    constr:    0.0000
     atom:   35    charge:    3.1849    magn:    1.0343    constr:    0.0000
     atom:   36    charge:    3.2140    magn:    1.0608    constr:    0.0000

     total cpu time spent up to now is      684.9 secs

     total energy              =   -2884.36314308 Ry
     Harris-Foulkes estimate   =   -2884.34822450 Ry
     estimated scf accuracy    <       2.33239332 Ry

     total magnetization       =    68.88 Bohr mag/cell
     absolute magnetization    =    71.65 Bohr mag/cell

     iteration #  7     ecut=    44.10 Ry     beta=0.10
     Davidson diagonalization with overlap
     ethr =  1.99E-04,  avg # of iterations =  1.6

     negative rho (up, down):  1.440E-02 8.845E-03
 
     Adding external electric field

     Computed dipole along edir(3) : 
        Dipole                0.0453 Ry au,          0.1151 Debye
        Dipole field          0.0001 Ry au
 
        Potential amp.       -0.0038 Ry
        Total length         34.6232 bohr
 
 
     Adding external electric field

     Computed dipole along edir(3) : 
        Dipole                0.0453 Ry au,          0.1151 Debye
        Dipole field          0.0001 Ry au
 
        Potential amp.       -0.0038 Ry
        Total length         34.6232 bohr
 
 
     Magnetic moment per site:
     atom:    1    charge:    3.2150    magn:    1.0481    constr:    0.0000
     atom:    2    charge:    3.1865    magn:    1.0202    constr:    0.0000
     atom:    3    charge:    3.1863    magn:    1.0203    constr:    0.0000
     atom:    4    charge:    3.2148    magn:    1.0484    constr:    0.0000
     atom:    5    charge:    3.2148    magn:    1.0482    constr:    0.0000
     atom:    6    charge:    3.1865    magn:    1.0202    constr:    0.0000
     atom:    7    charge:    3.1862    magn:    1.0204    constr:    0.0000
     atom:    8    charge:    3.2144    magn:    1.0486    constr:    0.0000
     atom:    9    charge:    3.2151    magn:    1.0480    constr:    0.0000
     atom:   10    charge:    3.1864    magn:    1.0203    constr:    0.0000
     atom:   11    charge:    3.1864    magn:    1.0203    constr:    0.0000
     atom:   12    charge:    3.2147    magn:    1.0485    constr:    0.0000
     atom:   13    charge:    3.2155    magn:    1.0478    constr:    0.0000
     atom:   14    charge:    3.1870    magn:    1.0199    constr:    0.0000
     atom:   15    charge:    3.1866    magn:    1.0202    constr:    0.0000
     atom:   16    charge:    3.2153    magn:    1.0481    constr:    0.0000
     atom:   17    charge:    3.2161    magn:    1.0473    constr:    0.0000
     atom:   18    charge:    3.1870    magn:    1.0199    constr:    0.0000
     atom:   19    charge:    3.1867    magn:    1.0201    constr:    0.0000
     atom:   20    charge:    3.2154    magn:    1.0480    constr:    0.0000
     atom:   21    charge:    3.2156    magn:    1.0477    constr:    0.0000
     atom:   22    charge:    3.1871    magn:    1.0198    constr:    0.0000
     atom:   23    charge:    3.1866    magn:    1.0202    constr:    0.0000
     atom:   24    charge:    3.2156    magn:    1.0479    constr:    0.0000
     atom:   25    charge:    3.2158    magn:    1.0476    constr:    0.0000
     atom:   26    charge:    3.1866    magn:    1.0201    constr:    0.0000
     atom:   27    charge:    3.1868    magn:    1.0201    constr:    0.0000
     atom:   28    charge:    3.2147    magn:    1.0485    constr:    0.0000
     atom:   29    charge:    3.2156    magn:    1.0477    constr:    0.0000
     atom:   30    charge:    3.1866    magn:    1.0202    constr:    0.0000
     atom:   31    charge:    3.1868    magn:    1.0200    constr:    0.0000
     atom:   32    charge:    3.2148    magn:    1.0483    constr:    0.0000
     atom:   33    charge:    3.2159    magn:    1.0475    constr:    0.0000
     atom:   34    charge:    3.1866    magn:    1.0201    constr:    0.0000
     atom:   35    charge:    3.1869    magn:    1.0200    constr:    0.0000
     atom:   36    charge:    3.2155    magn:    1.0479    constr:    0.0000

     total cpu time spent up to now is      771.7 secs

     total energy              =   -2884.39192991 Ry
     Harris-Foulkes estimate   =   -2884.38950366 Ry
     estimated scf accuracy    <       1.65926301 Ry

     total magnetization       =    68.14 Bohr mag/cell
     absolute magnetization    =    71.38 Bohr mag/cell

     iteration #  8     ecut=    44.10 Ry     beta=0.10
     Davidson diagonalization with overlap
     ethr =  1.99E-04,  avg # of iterations =  1.0

     negative rho (up, down):  1.494E-02 9.384E-03
 
     Adding external electric field

     Computed dipole along edir(3) : 
        Dipole               -0.0089 Ry au,         -0.0226 Debye
        Dipole field         -0.0000 Ry au
 
        Potential amp.        0.0008 Ry
        Total length         34.6232 bohr
 
 
     Adding external electric field

     Computed dipole along edir(3) : 
        Dipole               -0.0089 Ry au,         -0.0226 Debye
        Dipole field         -0.0000 Ry au
 
        Potential amp.        0.0008 Ry
        Total length         34.6232 bohr
 
 
     Magnetic moment per site:
     atom:    1    charge:    3.2179    magn:    1.0198    constr:    0.0000
     atom:    2    charge:    3.1942    magn:    0.9865    constr:    0.0000
     atom:    3    charge:    3.1942    magn:    0.9865    constr:    0.0000
     atom:    4    charge:    3.2188    magn:    1.0193    constr:    0.0000
     atom:    5    charge:    3.2179    magn:    1.0198    constr:    0.0000
     atom:    6    charge:    3.1939    magn:    0.9867    constr:    0.0000
     atom:    7    charge:    3.1940    magn:    0.9867    constr:    0.0000
     atom:    8    charge:    3.2177    magn:    1.0201    constr:    0.0000
     atom:    9    charge:    3.2191    magn:    1.0190    constr:    0.0000
     atom:   10    charge:    3.1937    magn:    0.9869    constr:    0.0000
     atom:   11    charge:    3.1939    magn:    0.9867    constr:    0.0000
     atom:   12    charge:    3.2188    magn:    1.0193    constr:    0.0000
     atom:   13    charge:    3.2177    magn:    1.0202    constr:    0.0000
     atom:   14    charge:    3.1933    magn:    0.9872    constr:    0.0000
     atom:   15    charge:    3.1935    magn:    0.9871    constr:    0.0000
     atom:   16    charge:    3.2179    magn:    1.0202    constr:    0.0000
     atom:   17    charge:    3.2195    magn:    1.0188    constr:    0.0000
     atom:   18    charge:    3.1933    magn:    0.9872    constr:    0.0000
     atom:   19    charge:    3.1935    magn:    0.9871    constr:    0.0000
     atom:   20    charge:    3.2178    magn:    1.0202    constr:    0.0000
     atom:   21    charge:    3.2182    magn:    1.0197    constr:    0.0000
     atom:   22    charge:    3.1938    magn:    0.9868    constr:    0.0000
     atom:   23    charge:    3.1938    magn:    0.9868    constr:    0.0000
     atom:   24    charge:    3.2187    magn:    1.0195    constr:    0.0000
     atom:   25    charge:    3.2182    magn:    1.0198    constr:    0.0000
     atom:   26    charge:    3.1941    magn:    0.9866    constr:    0.0000
     atom:   27    charge:    3.1933    magn:    0.9872    constr:    0.0000
     atom:   28    charge:    3.2176    magn:    1.0203    constr:    0.0000
     atom:   29    charge:    3.2175    magn:    1.0203    constr:    0.0000
     atom:   30    charge:    3.1936    magn:    0.9869    constr:    0.0000
     atom:   31    charge:    3.1934    magn:    0.9871    constr:    0.0000
     atom:   32    charge:    3.2183    magn:    1.0197    constr:    0.0000
     atom:   33    charge:    3.2181    magn:    1.0199    constr:    0.0000
     atom:   34    charge:    3.1942    magn:    0.9865    constr:    0.0000
     atom:   35    charge:    3.1938    magn:    0.9868    constr:    0.0000
     atom:   36    charge:    3.2200    magn:    1.0185    constr:    0.0000

     total cpu time spent up to now is      856.8 secs

     total energy              =   -2884.38863212 Ry
     Harris-Foulkes estimate   =   -2884.40212083 Ry
     estimated scf accuracy    <       1.31402311 Ry

     total magnetization       =    67.70 Bohr mag/cell
     absolute magnetization    =    71.29 Bohr mag/cell

     iteration #  9     ecut=    44.10 Ry     beta=0.10
     Davidson diagonalization with overlap
     ethr =  1.99E-04,  avg # of iterations =  1.0

     negative rho (up, down):  1.431E-02 9.327E-03
 
     Adding external electric field

     Computed dipole along edir(3) : 
        Dipole                0.0008 Ry au,          0.0020 Debye
        Dipole field          0.0000 Ry au
 
        Potential amp.       -0.0001 Ry
        Total length         34.6232 bohr
 
 
     Adding external electric field

     Computed dipole along edir(3) : 
        Dipole                0.0008 Ry au,          0.0020 Debye
        Dipole field          0.0000 Ry au
 
        Potential amp.       -0.0001 Ry
        Total length         34.6232 bohr
 
 
     Magnetic moment per site:
     atom:    1    charge:    3.2194    magn:    1.0065    constr:    0.0000
     atom:    2    charge:    3.1989    magn:    0.9704    constr:    0.0000
     atom:    3    charge:    3.1988    magn:    0.9705    constr:    0.0000
     atom:    4    charge:    3.2195    magn:    1.0067    constr:    0.0000
     atom:    5    charge:    3.2197    magn:    1.0062    constr:    0.0000
     atom:    6    charge:    3.1988    magn:    0.9705    constr:    0.0000
     atom:    7    charge:    3.1989    magn:    0.9704    constr:    0.0000
     atom:    8    charge:    3.2196    magn:    1.0064    constr:    0.0000
     atom:    9    charge:    3.2195    magn:    1.0065    constr:    0.0000
     atom:   10    charge:    3.1988    magn:    0.9705    constr:    0.0000
     atom:   11    charge:    3.1986    magn:    0.9706    constr:    0.0000
     atom:   12    charge:    3.2196    magn:    1.0065    constr:    0.0000
     atom:   13    charge:    3.2195    magn:    1.0065    constr:    0.0000
     atom:   14    charge:    3.1989    magn:    0.9705    constr:    0.0000
     atom:   15    charge:    3.1988    magn:    0.9705    constr:    0.0000
     atom:   16    charge:    3.2198    magn:    1.0065    constr:    0.0000
     atom:   17    charge:    3.2192    magn:    1.0068    constr:    0.0000
     atom:   18    charge:    3.1987    magn:    0.9706    constr:    0.0000
     atom:   19    charge:    3.1987    magn:    0.9706    constr:    0.0000
     atom:   20    charge:    3.2196    magn:    1.0067    constr:    0.0000
     atom:   21    charge:    3.2195    magn:    1.0066    constr:    0.0000
     atom:   22    charge:    3.1988    magn:    0.9705    constr:    0.0000
     atom:   23    charge:    3.1990    magn:    0.9704    constr:    0.0000
     atom:   24    charge:    3.2196    magn:    1.0067    constr:    0.0000
     atom:   25    charge:    3.2196    magn:    1.0065    constr:    0.0000
     atom:   26    charge:    3.1989    magn:    0.9704    constr:    0.0000
     atom:   27    charge:    3.1988    magn:    0.9706    constr:    0.0000
     atom:   28    charge:    3.2195    magn:    1.0065    constr:    0.0000
     atom:   29    charge:    3.2196    magn:    1.0065    constr:    0.0000
     atom:   30    charge:    3.1988    magn:    0.9705    constr:    0.0000
     atom:   31    charge:    3.1987    magn:    0.9706    constr:    0.0000
     atom:   32    charge:    3.2196    magn:    1.0066    constr:    0.0000
     atom:   33    charge:    3.2194    magn:    1.0067    constr:    0.0000
     atom:   34    charge:    3.1989    magn:    0.9704    constr:    0.0000
     atom:   35    charge:    3.1988    magn:    0.9705    constr:    0.0000
     atom:   36    charge:    3.2192    magn:    1.0069    constr:    0.0000

     total cpu time spent up to now is      941.8 secs

     total energy              =   -2884.39577098 Ry
     Harris-Foulkes estimate   =   -2884.40743629 Ry
     estimated scf accuracy    <       0.41944730 Ry

     total magnetization       =    66.68 Bohr mag/cell
     absolute magnetization    =    70.99 Bohr mag/cell

     iteration # 10     ecut=    44.10 Ry     beta=0.10
     Davidson diagonalization with overlap
     ethr =  1.29E-04,  avg # of iterations =  1.0

     negative rho (up, down):  1.299E-02 8.974E-03
 
     Adding external electric field

     Computed dipole along edir(3) : 
        Dipole               -0.0000 Ry au,         -0.0001 Debye
        Dipole field         -0.0000 Ry au
 
        Potential amp.        0.0000 Ry
        Total length         34.6232 bohr
 
 
     Adding external electric field

     Computed dipole along edir(3) : 
        Dipole               -0.0000 Ry au,         -0.0001 Debye
        Dipole field         -0.0000 Ry au
 
        Potential amp.        0.0000 Ry
        Total length         34.6232 bohr
 
 
     Magnetic moment per site:
     atom:    1    charge:    3.2192    magn:    1.0034    constr:    0.0000
     atom:    2    charge:    3.2015    magn:    0.9656    constr:    0.0000
     atom:    3    charge:    3.2015    magn:    0.9655    constr:    0.0000
     atom:    4    charge:    3.2192    magn:    1.0037    constr:    0.0000
     atom:    5    charge:    3.2191    magn:    1.0035    constr:    0.0000
     atom:    6    charge:    3.2015    magn:    0.9656    constr:    0.0000
     atom:    7    charge:    3.2014    magn:    0.9656    constr:    0.0000
     atom:    8    charge:    3.2191    magn:    1.0036    constr:    0.0000
     atom:    9    charge:    3.2191    magn:    1.0037    constr:    0.0000
     atom:   10    charge:    3.2015    magn:    0.9656    constr:    0.0000
     atom:   11    charge:    3.2015    magn:    0.9655    constr:    0.0000
     atom:   12    charge:    3.2190    magn:    1.0038    constr:    0.0000
     atom:   13    charge:    3.2191    magn:    1.0036    constr:    0.0000
     atom:   14    charge:    3.2014    magn:    0.9657    constr:    0.0000
     atom:   15    charge:    3.2015    magn:    0.9657    constr:    0.0000
     atom:   16    charge:    3.2190    magn:    1.0039    constr:    0.0000
     atom:   17    charge:    3.2191    magn:    1.0037    constr:    0.0000
     atom:   18    charge:    3.2015    magn:    0.9656    constr:    0.0000
     atom:   19    charge:    3.2015    magn:    0.9656    constr:    0.0000
     atom:   20    charge:    3.2192    magn:    1.0038    constr:    0.0000
     atom:   21    charge:    3.2191    magn:    1.0037    constr:    0.0000
     atom:   22    charge:    3.2014    magn:    0.9656    constr:    0.0000
     atom:   23    charge:    3.2014    magn:    0.9657    constr:    0.0000
     atom:   24    charge:    3.2190    magn:    1.0040    constr:    0.0000
     atom:   25    charge:    3.2189    magn:    1.0038    constr:    0.0000
     atom:   26    charge:    3.2014    magn:    0.9657    constr:    0.0000
     atom:   27    charge:    3.2015    magn:    0.9657    constr:    0.0000
     atom:   28    charge:    3.2192    magn:    1.0036    constr:    0.0000
     atom:   29    charge:    3.2190    magn:    1.0037    constr:    0.0000
     atom:   30    charge:    3.2014    magn:    0.9657    constr:    0.0000
     atom:   31    charge:    3.2015    magn:    0.9656    constr:    0.0000
     atom:   32    charge:    3.2192    magn:    1.0037    constr:    0.0000
     atom:   33    charge:    3.2191    magn:    1.0037    constr:    0.0000
     atom:   34    charge:    3.2014    magn:    0.9656    constr:    0.0000
     atom:   35    charge:    3.2015    magn:    0.9656    constr:    0.0000
     atom:   36    charge:    3.2192    magn:    1.0038    constr:    0.0000

     total cpu time spent up to now is     1027.2 secs

     total energy              =   -2884.39609219 Ry
     Harris-Foulkes estimate   =   -2884.40373445 Ry
     estimated scf accuracy    <       0.11471384 Ry

     total magnetization       =    66.07 Bohr mag/cell
     absolute magnetization    =    70.85 Bohr mag/cell

     iteration # 11     ecut=    44.10 Ry     beta=0.10
     Davidson diagonalization with overlap
     ethr =  3.54E-05,  avg # of iterations =  2.1

     negative rho (up, down):  1.178E-02 8.706E-03
 
     Adding external electric field

     Computed dipole along edir(3) : 
        Dipole               -0.0002 Ry au,         -0.0004 Debye
        Dipole field         -0.0000 Ry au
 
        Potential amp.        0.0000 Ry
        Total length         34.6232 bohr
 
 
     Adding external electric field

     Computed dipole along edir(3) : 
        Dipole               -0.0002 Ry au,         -0.0004 Debye
        Dipole field         -0.0000 Ry au
 
        Potential amp.        0.0000 Ry
        Total length         34.6232 bohr
 
 
     Magnetic moment per site:
     atom:    1    charge:    3.2187    magn:    1.0027    constr:    0.0000
     atom:    2    charge:    3.2023    magn:    0.9633    constr:    0.0000
     atom:    3    charge:    3.2022    magn:    0.9633    constr:    0.0000
     atom:    4    charge:    3.2188    magn:    1.0028    constr:    0.0000
     atom:    5    charge:    3.2190    magn:    1.0024    constr:    0.0000
     atom:    6    charge:    3.2022    magn:    0.9633    constr:    0.0000
     atom:    7    charge:    3.2023    magn:    0.9633    constr:    0.0000
     atom:    8    charge:    3.2189    magn:    1.0026    constr:    0.0000
     atom:    9    charge:    3.2191    magn:    1.0025    constr:    0.0000
     atom:   10    charge:    3.2022    magn:    0.9634    constr:    0.0000
     atom:   11    charge:    3.2021    magn:    0.9634    constr:    0.0000
     atom:   12    charge:    3.2191    magn:    1.0025    constr:    0.0000
     atom:   13    charge:    3.2187    magn:    1.0028    constr:    0.0000
     atom:   14    charge:    3.2022    magn:    0.9634    constr:    0.0000
     atom:   15    charge:    3.2022    magn:    0.9634    constr:    0.0000
     atom:   16    charge:    3.2191    magn:    1.0027    constr:    0.0000
     atom:   17    charge:    3.2188    magn:    1.0027    constr:    0.0000
     atom:   18    charge:    3.2021    magn:    0.9635    constr:    0.0000
     atom:   19    charge:    3.2021    magn:    0.9634    constr:    0.0000
     atom:   20    charge:    3.2188    magn:    1.0030    constr:    0.0000
     atom:   21    charge:    3.2189    magn:    1.0027    constr:    0.0000
     atom:   22    charge:    3.2023    magn:    0.9633    constr:    0.0000
     atom:   23    charge:    3.2024    magn:    0.9633    constr:    0.0000
     atom:   24    charge:    3.2192    magn:    1.0027    constr:    0.0000
     atom:   25    charge:    3.2190    magn:    1.0026    constr:    0.0000
     atom:   26    charge:    3.2023    magn:    0.9633    constr:    0.0000
     atom:   27    charge:    3.2022    magn:    0.9634    constr:    0.0000
     atom:   28    charge:    3.2187    magn:    1.0028    constr:    0.0000
     atom:   29    charge:    3.2189    magn:    1.0027    constr:    0.0000
     atom:   30    charge:    3.2023    magn:    0.9634    constr:    0.0000
     atom:   31    charge:    3.2021    magn:    0.9635    constr:    0.0000
     atom:   32    charge:    3.2189    magn:    1.0028    constr:    0.0000
     atom:   33    charge:    3.2187    magn:    1.0028    constr:    0.0000
     atom:   34    charge:    3.2023    magn:    0.9632    constr:    0.0000
     atom:   35    charge:    3.2022    magn:    0.9634    constr:    0.0000
     atom:   36    charge:    3.2188    magn:    1.0029    constr:    0.0000

     total cpu time spent up to now is     1116.4 secs

     total energy              =   -2884.39888454 Ry
     Harris-Foulkes estimate   =   -2884.39905723 Ry
     estimated scf accuracy    <       0.03803978 Ry

     total magnetization       =    65.73 Bohr mag/cell
     absolute magnetization    =    70.65 Bohr mag/cell

     iteration # 12     ecut=    44.10 Ry     beta=0.10
     Davidson diagonalization with overlap
     ethr =  1.17E-05,  avg # of iterations =  1.7

     negative rho (up, down):  1.067E-02 8.736E-03
 
     Adding external electric field

     Computed dipole along edir(3) : 
        Dipole               -0.0006 Ry au,         -0.0016 Debye
        Dipole field         -0.0000 Ry au
 
        Potential amp.        0.0001 Ry
        Total length         34.6232 bohr
 
 
     Adding external electric field

     Computed dipole along edir(3) : 
        Dipole               -0.0006 Ry au,         -0.0016 Debye
        Dipole field         -0.0000 Ry au
 
        Potential amp.        0.0001 Ry
        Total length         34.6232 bohr
 
 
     Magnetic moment per site:
     atom:    1    charge:    3.2187    magn:    0.9985    constr:    0.0000
     atom:    2    charge:    3.2032    magn:    0.9537    constr:    0.0000
     atom:    3    charge:    3.2030    magn:    0.9538    constr:    0.0000
     atom:    4    charge:    3.2188    magn:    0.9986    constr:    0.0000
     atom:    5    charge:    3.2186    magn:    0.9984    constr:    0.0000
     atom:    6    charge:    3.2027    magn:    0.9540    constr:    0.0000
     atom:    7    charge:    3.2032    magn:    0.9537    constr:    0.0000
     atom:    8    charge:    3.2187    magn:    0.9984    constr:    0.0000
     atom:    9    charge:    3.2185    magn:    0.9985    constr:    0.0000
     atom:   10    charge:    3.2026    magn:    0.9541    constr:    0.0000
     atom:   11    charge:    3.2022    magn:    0.9543    constr:    0.0000
     atom:   12    charge:    3.2184    magn:    0.9987    constr:    0.0000
     atom:   13    charge:    3.2190    magn:    0.9983    constr:    0.0000
     atom:   14    charge:    3.2029    magn:    0.9539    constr:    0.0000
     atom:   15    charge:    3.2027    magn:    0.9540    constr:    0.0000
     atom:   16    charge:    3.2186    magn:    0.9987    constr:    0.0000
     atom:   17    charge:    3.2186    magn:    0.9986    constr:    0.0000
     atom:   18    charge:    3.2028    magn:    0.9540    constr:    0.0000
     atom:   19    charge:    3.2025    magn:    0.9542    constr:    0.0000
     atom:   20    charge:    3.2190    magn:    0.9985    constr:    0.0000
     atom:   21    charge:    3.2185    magn:    0.9987    constr:    0.0000
     atom:   22    charge:    3.2029    magn:    0.9538    constr:    0.0000
     atom:   23    charge:    3.2031    magn:    0.9538    constr:    0.0000
     atom:   24    charge:    3.2185    magn:    0.9988    constr:    0.0000
     atom:   25    charge:    3.2185    magn:    0.9987    constr:    0.0000
     atom:   26    charge:    3.2033    magn:    0.9536    constr:    0.0000
     atom:   27    charge:    3.2026    magn:    0.9541    constr:    0.0000
     atom:   28    charge:    3.2190    magn:    0.9983    constr:    0.0000
     atom:   29    charge:    3.2189    magn:    0.9983    constr:    0.0000
     atom:   30    charge:    3.2027    magn:    0.9540    constr:    0.0000
     atom:   31    charge:    3.2026    magn:    0.9541    constr:    0.0000
     atom:   32    charge:    3.2189    magn:    0.9984    constr:    0.0000
     atom:   33    charge:    3.2186    magn:    0.9987    constr:    0.0000
     atom:   34    charge:    3.2034    magn:    0.9535    constr:    0.0000
     atom:   35    charge:    3.2029    magn:    0.9539    constr:    0.0000
     atom:   36    charge:    3.2187    magn:    0.9987    constr:    0.0000

     total cpu time spent up to now is     1204.0 secs

     total energy              =   -2884.40184707 Ry
     Harris-Foulkes estimate   =   -2884.39955931 Ry
     estimated scf accuracy    <       0.02204047 Ry

     total magnetization       =    65.57 Bohr mag/cell
     absolute magnetization    =    70.58 Bohr mag/cell

     iteration # 13     ecut=    44.10 Ry     beta=0.10
     Davidson diagonalization with overlap
     ethr =  6.80E-06,  avg # of iterations =  3.2

     negative rho (up, down):  9.585E-03 8.717E-03
 
     Adding external electric field

     Computed dipole along edir(3) : 
        Dipole               -0.0006 Ry au,         -0.0016 Debye
        Dipole field         -0.0000 Ry au
 
        Potential amp.        0.0001 Ry
        Total length         34.6232 bohr
 
 
     Adding external electric field

     Computed dipole along edir(3) : 
        Dipole               -0.0006 Ry au,         -0.0016 Debye
        Dipole field         -0.0000 Ry au
 
        Potential amp.        0.0001 Ry
        Total length         34.6232 bohr
 
 
     Magnetic moment per site:
     atom:    1    charge:    3.2189    magn:    0.9981    constr:    0.0000
     atom:    2    charge:    3.2016    magn:    0.9510    constr:    0.0000
     atom:    3    charge:    3.2014    magn:    0.9511    constr:    0.0000
     atom:    4    charge:    3.2189    magn:    0.9982    constr:    0.0000
     atom:    5    charge:    3.2188    magn:    0.9979    constr:    0.0000
     atom:    6    charge:    3.2015    magn:    0.9511    constr:    0.0000
     atom:    7    charge:    3.2015    magn:    0.9510    constr:    0.0000
     atom:    8    charge:    3.2188    magn:    0.9980    constr:    0.0000
     atom:    9    charge:    3.2186    magn:    0.9982    constr:    0.0000
     atom:   10    charge:    3.2015    magn:    0.9511    constr:    0.0000
     atom:   11    charge:    3.2014    magn:    0.9511    constr:    0.0000
     atom:   12    charge:    3.2187    magn:    0.9981    constr:    0.0000
     atom:   13    charge:    3.2188    magn:    0.9982    constr:    0.0000
     atom:   14    charge:    3.2015    magn:    0.9511    constr:    0.0000
     atom:   15    charge:    3.2016    magn:    0.9510    constr:    0.0000
     atom:   16    charge:    3.2187    magn:    0.9982    constr:    0.0000
     atom:   17    charge:    3.2188    magn:    0.9983    constr:    0.0000
     atom:   18    charge:    3.2015    magn:    0.9510    constr:    0.0000
     atom:   19    charge:    3.2015    magn:    0.9511    constr:    0.0000
     atom:   20    charge:    3.2189    magn:    0.9983    constr:    0.0000
     atom:   21    charge:    3.2189    magn:    0.9981    constr:    0.0000
     atom:   22    charge:    3.2015    magn:    0.9510    constr:    0.0000
     atom:   23    charge:    3.2015    magn:    0.9510    constr:    0.0000
     atom:   24    charge:    3.2186    magn:    0.9983    constr:    0.0000
     atom:   25    charge:    3.2186    magn:    0.9982    constr:    0.0000
     atom:   26    charge:    3.2013    magn:    0.9511    constr:    0.0000
     atom:   27    charge:    3.2014    magn:    0.9511    constr:    0.0000
     atom:   28    charge:    3.2188    magn:    0.9983    constr:    0.0000
     atom:   29    charge:    3.2186    magn:    0.9982    constr:    0.0000
     atom:   30    charge:    3.2014    magn:    0.9512    constr:    0.0000
     atom:   31    charge:    3.2014    magn:    0.9511    constr:    0.0000
     atom:   32    charge:    3.2187    magn:    0.9983    constr:    0.0000
     atom:   33    charge:    3.2188    magn:    0.9983    constr:    0.0000
     atom:   34    charge:    3.2014    magn:    0.9511    constr:    0.0000
     atom:   35    charge:    3.2014    magn:    0.9511    constr:    0.0000
     atom:   36    charge:    3.2186    magn:    0.9985    constr:    0.0000

     total cpu time spent up to now is     1297.3 secs

     total energy              =   -2884.40506094 Ry
     Harris-Foulkes estimate   =   -2884.40370763 Ry
     estimated scf accuracy    <       0.02153862 Ry

     total magnetization       =    65.04 Bohr mag/cell
     absolute magnetization    =    70.40 Bohr mag/cell

     iteration # 14     ecut=    44.10 Ry     beta=0.10
     Davidson diagonalization with overlap
     ethr =  6.65E-06,  avg # of iterations =  1.0

     negative rho (up, down):  8.566E-03 8.672E-03
 
     Adding external electric field

     Computed dipole along edir(3) : 
        Dipole               -0.0005 Ry au,         -0.0013 Debye
        Dipole field         -0.0000 Ry au
 
        Potential amp.        0.0000 Ry
        Total length         34.6232 bohr
 
 
     Adding external electric field

     Computed dipole along edir(3) : 
        Dipole               -0.0005 Ry au,         -0.0013 Debye
        Dipole field         -0.0000 Ry au
 
        Potential amp.        0.0000 Ry
        Total length         34.6232 bohr
 
 
     Magnetic moment per site:
     atom:    1    charge:    3.2189    magn:    0.9994    constr:    0.0000
     atom:    2    charge:    3.2019    magn:    0.9514    constr:    0.0000
     atom:    3    charge:    3.2023    magn:    0.9511    constr:    0.0000
     atom:    4    charge:    3.2185    magn:    0.9998    constr:    0.0000
     atom:    5    charge:    3.2188    magn:    0.9992    constr:    0.0000
     atom:    6    charge:    3.2022    magn:    0.9512    constr:    0.0000
     atom:    7    charge:    3.2021    magn:    0.9512    constr:    0.0000
     atom:    8    charge:    3.2187    magn:    0.9994    constr:    0.0000
     atom:    9    charge:    3.2188    magn:    0.9993    constr:    0.0000
     atom:   10    charge:    3.2023    magn:    0.9511    constr:    0.0000
     atom:   11    charge:    3.2027    magn:    0.9509    constr:    0.0000
     atom:   12    charge:    3.2187    magn:    0.9995    constr:    0.0000
     atom:   13    charge:    3.2185    magn:    0.9997    constr:    0.0000
     atom:   14    charge:    3.2022    magn:    0.9512    constr:    0.0000
     atom:   15    charge:    3.2021    magn:    0.9512    constr:    0.0000
     atom:   16    charge:    3.2188    magn:    0.9995    constr:    0.0000
     atom:   17    charge:    3.2185    magn:    0.9998    constr:    0.0000
     atom:   18    charge:    3.2022    magn:    0.9512    constr:    0.0000
     atom:   19    charge:    3.2023    magn:    0.9511    constr:    0.0000
     atom:   20    charge:    3.2186    magn:    0.9998    constr:    0.0000
     atom:   21    charge:    3.2186    magn:    0.9996    constr:    0.0000
     atom:   22    charge:    3.2021    magn:    0.9512    constr:    0.0000
     atom:   23    charge:    3.2019    magn:    0.9513    constr:    0.0000
     atom:   24    charge:    3.2188    magn:    0.9995    constr:    0.0000
     atom:   25    charge:    3.2190    magn:    0.9992    constr:    0.0000
     atom:   26    charge:    3.2021    magn:    0.9512    constr:    0.0000
     atom:   27    charge:    3.2025    magn:    0.9510    constr:    0.0000
     atom:   28    charge:    3.2190    magn:    0.9994    constr:    0.0000
     atom:   29    charge:    3.2189    magn:    0.9993    constr:    0.0000
     atom:   30    charge:    3.2025    magn:    0.9510    constr:    0.0000
     atom:   31    charge:    3.2025    magn:    0.9510    constr:    0.0000
     atom:   32    charge:    3.2188    magn:    0.9995    constr:    0.0000
     atom:   33    charge:    3.2190    magn:    0.9994    constr:    0.0000
     atom:   34    charge:    3.2020    magn:    0.9513    constr:    0.0000
     atom:   35    charge:    3.2023    magn:    0.9511    constr:    0.0000
     atom:   36    charge:    3.2189    magn:    0.9996    constr:    0.0000

     total cpu time spent up to now is     1382.5 secs

     total energy              =   -2884.40525089 Ry
     Harris-Foulkes estimate   =   -2884.40574254 Ry
     estimated scf accuracy    <       0.01113873 Ry

     total magnetization       =    64.91 Bohr mag/cell
     absolute magnetization    =    70.42 Bohr mag/cell

     iteration # 15     ecut=    44.10 Ry     beta=0.10
     Davidson diagonalization with overlap
     ethr =  3.44E-06,  avg # of iterations =  5.0

     negative rho (up, down):  7.884E-03 8.754E-03
 
     Adding external electric field

     Computed dipole along edir(3) : 
        Dipole               -0.0002 Ry au,         -0.0006 Debye
        Dipole field         -0.0000 Ry au
 
        Potential amp.        0.0000 Ry
        Total length         34.6232 bohr
 
 
     Adding external electric field

     Computed dipole along edir(3) : 
        Dipole               -0.0002 Ry au,         -0.0006 Debye
        Dipole field         -0.0000 Ry au
 
        Potential amp.        0.0000 Ry
        Total length         34.6232 bohr
 
 
     Magnetic moment per site:
     atom:    1    charge:    3.2186    magn:    0.9988    constr:    0.0000
     atom:    2    charge:    3.2016    magn:    0.9494    constr:    0.0000
     atom:    3    charge:    3.2017    magn:    0.9493    constr:    0.0000
     atom:    4    charge:    3.2185    magn:    0.9989    constr:    0.0000
     atom:    5    charge:    3.2185    magn:    0.9986    constr:    0.0000
     atom:    6    charge:    3.2017    magn:    0.9494    constr:    0.0000
     atom:    7    charge:    3.2017    magn:    0.9493    constr:    0.0000
     atom:    8    charge:    3.2187    magn:    0.9986    constr:    0.0000
     atom:    9    charge:    3.2185    magn:    0.9987    constr:    0.0000
     atom:   10    charge:    3.2016    magn:    0.9494    constr:    0.0000
     atom:   11    charge:    3.2016    magn:    0.9495    constr:    0.0000
     atom:   12    charge:    3.2185    magn:    0.9988    constr:    0.0000
     atom:   13    charge:    3.2188    magn:    0.9986    constr:    0.0000
     atom:   14    charge:    3.2016    magn:    0.9494    constr:    0.0000
     atom:   15    charge:    3.2016    magn:    0.9494    constr:    0.0000
     atom:   16    charge:    3.2186    magn:    0.9988    constr:    0.0000
     atom:   17    charge:    3.2186    magn:    0.9988    constr:    0.0000
     atom:   18    charge:    3.2016    magn:    0.9494    constr:    0.0000
     atom:   19    charge:    3.2016    magn:    0.9494    constr:    0.0000
     atom:   20    charge:    3.2187    magn:    0.9989    constr:    0.0000
     atom:   21    charge:    3.2185    magn:    0.9988    constr:    0.0000
     atom:   22    charge:    3.2016    magn:    0.9494    constr:    0.0000
     atom:   23    charge:    3.2017    magn:    0.9493    constr:    0.0000
     atom:   24    charge:    3.2185    magn:    0.9989    constr:    0.0000
     atom:   25    charge:    3.2185    magn:    0.9988    constr:    0.0000
     atom:   26    charge:    3.2017    magn:    0.9493    constr:    0.0000
     atom:   27    charge:    3.2016    magn:    0.9495    constr:    0.0000
     atom:   28    charge:    3.2187    magn:    0.9988    constr:    0.0000
     atom:   29    charge:    3.2187    magn:    0.9987    constr:    0.0000
     atom:   30    charge:    3.2016    magn:    0.9494    constr:    0.0000
     atom:   31    charge:    3.2015    magn:    0.9495    constr:    0.0000
     atom:   32    charge:    3.2185    magn:    0.9989    constr:    0.0000
     atom:   33    charge:    3.2185    magn:    0.9989    constr:    0.0000
     atom:   34    charge:    3.2017    magn:    0.9493    constr:    0.0000
     atom:   35    charge:    3.2017    magn:    0.9494    constr:    0.0000
     atom:   36    charge:    3.2185    magn:    0.9991    constr:    0.0000

     total cpu time spent up to now is     1484.1 secs

     total energy              =   -2884.40698562 Ry
     Harris-Foulkes estimate   =   -2884.40639224 Ry
     estimated scf accuracy    <       0.01363416 Ry

     total magnetization       =    64.83 Bohr mag/cell
     absolute magnetization    =    70.40 Bohr mag/cell

     iteration # 16     ecut=    44.10 Ry     beta=0.10
     Davidson diagonalization with overlap
     ethr =  3.44E-06,  avg # of iterations =  1.0

     negative rho (up, down):  7.195E-03 8.914E-03
 
     Adding external electric field

     Computed dipole along edir(3) : 
        Dipole               -0.0003 Ry au,         -0.0009 Debye
        Dipole field         -0.0000 Ry au
 
        Potential amp.        0.0000 Ry
        Total length         34.6232 bohr
 
 
     Adding external electric field

     Computed dipole along edir(3) : 
        Dipole               -0.0003 Ry au,         -0.0009 Debye
        Dipole field         -0.0000 Ry au
 
        Potential amp.        0.0000 Ry
        Total length         34.6232 bohr
 
 
     Magnetic moment per site:
     atom:    1    charge:    3.2191    magn:    0.9978    constr:    0.0000
     atom:    2    charge:    3.2018    magn:    0.9457    constr:    0.0000
     atom:    3    charge:    3.2016    magn:    0.9459    constr:    0.0000
     atom:    4    charge:    3.2190    magn:    0.9979    constr:    0.0000
     atom:    5    charge:    3.2191    magn:    0.9975    constr:    0.0000
     atom:    6    charge:    3.2017    magn:    0.9459    constr:    0.0000
     atom:    7    charge:    3.2018    magn:    0.9457    constr:    0.0000
     atom:    8    charge:    3.2189    magn:    0.9977    constr:    0.0000
     atom:    9    charge:    3.2188    magn:    0.9978    constr:    0.0000
     atom:   10    charge:    3.2017    magn:    0.9458    constr:    0.0000
     atom:   11    charge:    3.2016    magn:    0.9459    constr:    0.0000
     atom:   12    charge:    3.2189    magn:    0.9978    constr:    0.0000
     atom:   13    charge:    3.2189    magn:    0.9980    constr:    0.0000
     atom:   14    charge:    3.2018    magn:    0.9458    constr:    0.0000
     atom:   15    charge:    3.2018    magn:    0.9458    constr:    0.0000
     atom:   16    charge:    3.2189    magn:    0.9978    constr:    0.0000
     atom:   17    charge:    3.2188    magn:    0.9980    constr:    0.0000
     atom:   18    charge:    3.2017    magn:    0.9458    constr:    0.0000
     atom:   19    charge:    3.2016    magn:    0.9459    constr:    0.0000
     atom:   20    charge:    3.2191    magn:    0.9979    constr:    0.0000
     atom:   21    charge:    3.2190    magn:    0.9977    constr:    0.0000
     atom:   22    charge:    3.2018    magn:    0.9457    constr:    0.0000
     atom:   23    charge:    3.2018    magn:    0.9457    constr:    0.0000
     atom:   24    charge:    3.2188    magn:    0.9980    constr:    0.0000
     atom:   25    charge:    3.2190    magn:    0.9978    constr:    0.0000
     atom:   26    charge:    3.2017    magn:    0.9458    constr:    0.0000
     atom:   27    charge:    3.2017    magn:    0.9459    constr:    0.0000
     atom:   28    charge:    3.2190    magn:    0.9979    constr:    0.0000
     atom:   29    charge:    3.2189    magn:    0.9978    constr:    0.0000
     atom:   30    charge:    3.2017    magn:    0.9459    constr:    0.0000
     atom:   31    charge:    3.2017    magn:    0.9458    constr:    0.0000
     atom:   32    charge:    3.2191    magn:    0.9978    constr:    0.0000
     atom:   33    charge:    3.2190    magn:    0.9979    constr:    0.0000
     atom:   34    charge:    3.2018    magn:    0.9457    constr:    0.0000
     atom:   35    charge:    3.2017    magn:    0.9458    constr:    0.0000
     atom:   36    charge:    3.2189    magn:    0.9981    constr:    0.0000

     total cpu time spent up to now is     1569.3 secs

     total energy              =   -2884.40884888 Ry
     Harris-Foulkes estimate   =   -2884.40740233 Ry
     estimated scf accuracy    <       0.00254386 Ry

     total magnetization       =    64.74 Bohr mag/cell
     absolute magnetization    =    70.39 Bohr mag/cell

     iteration # 17     ecut=    44.10 Ry     beta=0.10
     Davidson diagonalization with overlap
     ethr =  7.85E-07,  avg # of iterations =  2.2

     negative rho (up, down):  6.674E-03 9.060E-03
 
     Adding external electric field

     Computed dipole along edir(3) : 
        Dipole               -0.0023 Ry au,         -0.0057 Debye
        Dipole field         -0.0000 Ry au
 
        Potential amp.        0.0002 Ry
        Total length         34.6232 bohr
 
 
     Adding external electric field

     Computed dipole along edir(3) : 
        Dipole               -0.0023 Ry au,         -0.0057 Debye
        Dipole field         -0.0000 Ry au
 
        Potential amp.        0.0002 Ry
        Total length         34.6232 bohr
 
 
     Magnetic moment per site:
     atom:    1    charge:    3.2191    magn:    0.9973    constr:    0.0000
     atom:    2    charge:    3.2018    magn:    0.9441    constr:    0.0000
     atom:    3    charge:    3.2018    magn:    0.9442    constr:    0.0000
     atom:    4    charge:    3.2190    magn:    0.9974    constr:    0.0000
     atom:    5    charge:    3.2190    magn:    0.9971    constr:    0.0000
     atom:    6    charge:    3.2018    magn:    0.9442    constr:    0.0000
     atom:    7    charge:    3.2018    magn:    0.9441    constr:    0.0000
     atom:    8    charge:    3.2191    magn:    0.9971    constr:    0.0000
     atom:    9    charge:    3.2190    magn:    0.9972    constr:    0.0000
     atom:   10    charge:    3.2018    magn:    0.9442    constr:    0.0000
     atom:   11    charge:    3.2018    magn:    0.9442    constr:    0.0000
     atom:   12    charge:    3.2190    magn:    0.9972    constr:    0.0000
     atom:   13    charge:    3.2191    magn:    0.9973    constr:    0.0000
     atom:   14    charge:    3.2018    magn:    0.9441    constr:    0.0000
     atom:   15    charge:    3.2018    magn:    0.9442    constr:    0.0000
     atom:   16    charge:    3.2191    magn:    0.9972    constr:    0.0000
     atom:   17    charge:    3.2191    magn:    0.9974    constr:    0.0000
     atom:   18    charge:    3.2019    magn:    0.9441    constr:    0.0000
     atom:   19    charge:    3.2018    magn:    0.9442    constr:    0.0000
     atom:   20    charge:    3.2191    magn:    0.9974    constr:    0.0000
     atom:   21    charge:    3.2190    magn:    0.9973    constr:    0.0000
     atom:   22    charge:    3.2018    magn:    0.9441    constr:    0.0000
     atom:   23    charge:    3.2018    magn:    0.9441    constr:    0.0000
     atom:   24    charge:    3.2191    magn:    0.9973    constr:    0.0000
     atom:   25    charge:    3.2190    magn:    0.9972    constr:    0.0000
     atom:   26    charge:    3.2018    magn:    0.9441    constr:    0.0000
     atom:   27    charge:    3.2018    magn:    0.9441    constr:    0.0000
     atom:   28    charge:    3.2192    magn:    0.9973    constr:    0.0000
     atom:   29    charge:    3.2191    magn:    0.9972    constr:    0.0000
     atom:   30    charge:    3.2018    magn:    0.9442    constr:    0.0000
     atom:   31    charge:    3.2018    magn:    0.9441    constr:    0.0000
     atom:   32    charge:    3.2190    magn:    0.9974    constr:    0.0000
     atom:   33    charge:    3.2191    magn:    0.9973    constr:    0.0000
     atom:   34    charge:    3.2018    magn:    0.9441    constr:    0.0000
     atom:   35    charge:    3.2018    magn:    0.9441    constr:    0.0000
     atom:   36    charge:    3.2191    magn:    0.9975    constr:    0.0000

     total cpu time spent up to now is     1659.1 secs

     total energy              =   -2884.40974987 Ry
     Harris-Foulkes estimate   =   -2884.40902981 Ry
     estimated scf accuracy    <       0.00183845 Ry

     total magnetization       =    64.59 Bohr mag/cell
     absolute magnetization    =    70.40 Bohr mag/cell

     iteration # 18     ecut=    44.10 Ry     beta=0.10
     Davidson diagonalization with overlap
     ethr =  5.67E-07,  avg # of iterations =  1.0

     negative rho (up, down):  6.205E-03 9.187E-03
 
     Adding external electric field

     Computed dipole along edir(3) : 
        Dipole                0.0064 Ry au,          0.0163 Debye
        Dipole field          0.0000 Ry au
 
        Potential amp.       -0.0005 Ry
        Total length         34.6232 bohr
 
 
     Adding external electric field

     Computed dipole along edir(3) : 
        Dipole                0.0064 Ry au,          0.0163 Debye
        Dipole field          0.0000 Ry au
 
        Potential amp.       -0.0005 Ry
        Total length         34.6232 bohr
 
 
     Magnetic moment per site:
     atom:    1    charge:    3.2192    magn:    0.9979    constr:    0.0000
     atom:    2    charge:    3.2018    magn:    0.9449    constr:    0.0000
     atom:    3    charge:    3.2018    magn:    0.9448    constr:    0.0000
     atom:    4    charge:    3.2190    magn:    0.9981    constr:    0.0000
     atom:    5    charge:    3.2191    magn:    0.9977    constr:    0.0000
     atom:    6    charge:    3.2018    magn:    0.9449    constr:    0.0000
     atom:    7    charge:    3.2018    magn:    0.9448    constr:    0.0000
     atom:    8    charge:    3.2191    magn:    0.9978    constr:    0.0000
     atom:    9    charge:    3.2191    magn:    0.9978    constr:    0.0000
     atom:   10    charge:    3.2018    magn:    0.9449    constr:    0.0000
     atom:   11    charge:    3.2018    magn:    0.9449    constr:    0.0000
     atom:   12    charge:    3.2190    magn:    0.9979    constr:    0.0000
     atom:   13    charge:    3.2192    magn:    0.9979    constr:    0.0000
     atom:   14    charge:    3.2018    magn:    0.9449    constr:    0.0000
     atom:   15    charge:    3.2018    magn:    0.9449    constr:    0.0000
     atom:   16    charge:    3.2190    magn:    0.9980    constr:    0.0000
     atom:   17    charge:    3.2191    magn:    0.9981    constr:    0.0000
     atom:   18    charge:    3.2018    magn:    0.9449    constr:    0.0000
     atom:   19    charge:    3.2018    magn:    0.9449    constr:    0.0000
     atom:   20    charge:    3.2190    magn:    0.9981    constr:    0.0000
     atom:   21    charge:    3.2191    magn:    0.9979    constr:    0.0000
     atom:   22    charge:    3.2018    magn:    0.9448    constr:    0.0000
     atom:   23    charge:    3.2018    magn:    0.9448    constr:    0.0000
     atom:   24    charge:    3.2190    magn:    0.9980    constr:    0.0000
     atom:   25    charge:    3.2191    magn:    0.9979    constr:    0.0000
     atom:   26    charge:    3.2018    magn:    0.9448    constr:    0.0000
     atom:   27    charge:    3.2018    magn:    0.9449    constr:    0.0000
     atom:   28    charge:    3.2191    magn:    0.9980    constr:    0.0000
     atom:   29    charge:    3.2191    magn:    0.9978    constr:    0.0000
     atom:   30    charge:    3.2018    magn:    0.9449    constr:    0.0000
     atom:   31    charge:    3.2018    magn:    0.9449    constr:    0.0000
     atom:   32    charge:    3.2190    magn:    0.9981    constr:    0.0000
     atom:   33    charge:    3.2191    magn:    0.9980    constr:    0.0000
     atom:   34    charge:    3.2018    magn:    0.9448    constr:    0.0000
     atom:   35    charge:    3.2018    magn:    0.9449    constr:    0.0000
     atom:   36    charge:    3.2190    magn:    0.9982    constr:    0.0000

     total cpu time spent up to now is     1743.9 secs

     total energy              =   -2884.41005427 Ry
     Harris-Foulkes estimate   =   -2884.40981908 Ry
     estimated scf accuracy    <       0.00129996 Ry

     total magnetization       =    64.51 Bohr mag/cell
     absolute magnetization    =    70.41 Bohr mag/cell

     iteration # 19     ecut=    44.10 Ry     beta=0.10
     Davidson diagonalization with overlap
     ethr =  4.01E-07,  avg # of iterations =  1.0

     negative rho (up, down):  5.792E-03 9.358E-03
 
     Adding external electric field

[...]
    -1.7030  -1.7029  -1.6861  -1.6861  -1.6547  -1.6546  -1.6365  -1.6365
    -1.5425  -1.5424  -1.5187  -1.5068  -1.4513  -1.4455  -1.4454  -1.3844
    -1.3569  -1.3568  -1.3475  -1.3371  -1.3264  -1.3262  -1.3232  -1.3231
    -1.2815  -1.2813  -1.2397  -1.2396  -1.2299  -1.2136  -1.1995  -1.1994
    -1.1369  -1.1222  -1.0880  -1.0805  -1.0319  -1.0319  -1.0195  -1.0122
    -1.0046  -1.0046  -0.9901  -0.9900  -0.9025  -0.8988  -0.8985  -0.8748
    -0.8747  -0.8470  -0.7953  -0.7952  -0.7951  -0.7918  -0.7856  -0.7268
    -0.7266  -0.7256  -0.7255  -0.6663  -0.6488  -0.6487  -0.6442  -0.6101
    -0.6064  -0.6062  -0.5883  -0.5711  -0.5455  -0.5454  -0.5000  -0.5000
    -0.4673  -0.4672  -0.4423  -0.4276  -0.3685  -0.3533  -0.3532  -0.3288
    -0.3287  -0.2927  -0.1790  -0.1715  -0.1649  -0.1648   0.5370   0.5371
     0.5778   0.7586   0.7853   0.7853   0.9536   0.9539   1.3669   1.6259
     1.6260   1.6307   1.9707   1.9708   2.6353   2.6354   2.7342   2.7342
     2.8776   3.0924   3.0925   3.3221   3.4384   3.4385   3.4985   3.8438
     3.8442   4.1023   4.1023   4.1357   4.4081   4.9642   4.9646   5.0448
     5.2266   5.2267   5.2653   5.4453   5.6556   5.6714   5.6978   5.6996
     6.1243   6.1252   6.3114   6.4391   6.4849   6.5645   6.5663   6.6076
     6.6895   6.6895   6.8458   6.8458   6.9309   6.9330   6.9830   6.9837
     7.5110   7.5121   7.7832   7.7854   7.8292   7.8293   7.9879   7.9972
     7.9973   8.2373   8.2385   8.3396   8.4514   8.7753

 ------ SPIN DOWN ----------


          k = 0.0000 0.0000 0.0000 ( 50983 PWs)   bands (ev):

    -7.3222  -6.0153  -6.0149  -4.8601  -4.8601  -4.5562  -3.9417  -3.9416
    -3.9414  -3.9413  -3.7474  -3.7472  -3.3760  -3.3759  -3.0619  -3.0619
    -2.8155  -2.7005  -2.7004  -2.4993  -2.4993  -2.4992  -2.4992  -2.2205
    -2.2205  -2.2202  -2.2202  -2.1719  -2.1375  -2.1142  -2.1142  -2.0889
    -2.0887  -1.9220  -1.9218  -1.8991  -1.8991  -1.8990  -1.8990  -1.8409
    -1.8409  -1.7272  -1.7269  -1.5963  -1.5962  -1.5960  -1.5959  -1.4833
    -1.4832  -1.4832  -1.4832  -1.4526  -1.3513  -1.3512  -1.2546  -1.2546
    -1.2545  -1.2544  -1.0850  -0.9990  -0.9989  -0.9597  -0.9597  -0.9236
    -0.9235  -0.8950  -0.8949  -0.8949  -0.8948  -0.8829  -0.8274  -0.8274
    -0.7697  -0.7697  -0.5989  -0.5989  -0.5988  -0.5987  -0.5317  -0.5316
    -0.5315  -0.5314  -0.4641  -0.4640  -0.4640  -0.4639  -0.4593  -0.4592
    -0.3478  -0.2832  -0.2831  -0.2818  -0.2719  -0.2717  -0.2560  -0.1855
    -0.1855  -0.1378  -0.1377  -0.1278  -0.1059  -0.1057  -0.0490  -0.0489
    -0.0489  -0.0488  -0.0300  -0.0300   0.0173   0.0174   0.1012   0.1012
     0.1012   0.1013   0.2357   0.2358   0.2358   0.2360   0.2595   0.2596
     0.3877   0.3878   0.4455   0.4519   0.4809   0.4811   0.5484   0.5484
     0.5798   0.5937   0.5938   0.5938   0.5938   0.7631   0.7632   0.7732
     0.7734   0.7760   0.7761   0.7970   0.7972   0.8681   0.8681   0.8681
     0.8682   0.9475   0.9597   0.9598   0.9599   0.9599   0.9830   0.9830
     1.1227   1.1521   1.1521   1.1525   1.1525   1.1920   1.1921   1.1922
     1.1923   1.1978   1.1978   1.2526   1.2526   1.2892   1.2892   1.2893
     1.2893   1.3461   1.3461   1.3461   1.3462   1.3523   1.3524   1.3689
     1.4120   1.4120   1.4167   1.4167   1.4168   1.4169   1.4209   1.4994
     1.5040   1.5040   1.5270   1.5270   1.5371   1.5371   1.6562   1.6564
     1.6927   1.6928   1.6996   1.6998   1.7147   1.7148   1.8034   2.6949
     2.6950   2.6950   2.6950   3.1289   3.1291   3.4496   3.4611   3.4612
     3.7798   3.7803   3.8426   3.8426   3.8427   3.8427   4.0382   4.6673
     4.7359   4.7359   4.7360   4.7361   5.1940   5.3099   5.3100   5.3542
     5.4279   5.4280   5.8609   5.8613   6.1468   6.1468   6.1469   6.1469
     6.5294   6.5297   6.5723   6.5725   6.6575   6.6577   6.8307   6.8308
     6.8309   6.8310   7.4242   7.4244   7.5732   7.5733   7.6547   7.8611
     7.8615   7.8858   7.8860   7.8863   7.8864   8.1423   8.4033   8.4035
     8.4035   8.4038   8.4809   8.6724   8.6727   8.7796

          k = 0.0000 0.0538 0.0000 ( 51003 PWs)   bands (ev):

    -6.8647  -6.4259  -5.9964  -5.5894  -4.8495  -4.1823  -4.1582  -3.9190
    -3.8851  -3.5499  -3.5158  -3.3559  -3.3380  -3.2140  -3.0643  -2.9703
    -2.9329  -2.8026  -2.7655  -2.7380  -2.7290  -2.6597  -2.4333  -2.3833
    -2.3624  -2.3130  -2.2586  -2.2413  -2.2348  -2.2001  -2.1798  -2.0334
    -2.0275  -1.9862  -1.9614  -1.9161  -1.8717  -1.8497  -1.8253  -1.7617
    -1.7564  -1.6996  -1.6842  -1.6688  -1.6380  -1.5334  -1.4753  -1.4534
    -1.4449  -1.4305  -1.4246  -1.4098  -1.3483  -1.2916  -1.2621  -1.2498
    -1.2122  -1.1858  -1.1831  -1.1670  -1.1446  -1.1328  -1.1026  -0.9725
    -0.9518  -0.9274  -0.9071  -0.8533  -0.8131  -0.8113  -0.7851  -0.7439
    -0.7385  -0.7127  -0.6768  -0.6489  -0.6297  -0.6191  -0.6103  -0.6048
    -0.5988  -0.5857  -0.5758  -0.4808  -0.4656  -0.4214  -0.4115  -0.3866
    -0.3799  -0.3639  -0.3565  -0.3354  -0.3196  -0.2853  -0.2795  -0.2336
    -0.2110  -0.2017  -0.1870  -0.1551  -0.1510  -0.1055  -0.0904  -0.0670
    -0.0315  -0.0209   0.0216   0.0390   0.0611   0.1197   0.1354   0.1423
     0.1514   0.1893   0.2159   0.2641   0.2695   0.2719   0.3000   0.3408
     0.3775   0.3795   0.3909   0.4083   0.4090   0.4343   0.4565   0.4745
     0.5009   0.5093   0.5193   0.5453   0.5547   0.5979   0.6334   0.6403
     0.7466   0.7551   0.7723   0.7803   0.7933   0.8016   0.8161   0.8601
     0.9136   0.9138   0.9290   0.9396   1.0091   1.0660   1.0950   1.0962
     1.0981   1.1068   1.1147   1.1307   1.1578   1.1654   1.1854   1.2060
     1.2175   1.2471   1.2570   1.2616   1.2654   1.2721   1.2911   1.2973
     1.3120   1.3180   1.3237   1.3295   1.3721   1.3732   1.4593   1.4750
     1.4905   1.4937   1.5000   1.5128   1.5612   1.5641   1.5673   1.5771
     1.6184   1.6282   1.6286   1.6319   1.6344   1.6497   1.6564   1.7145
     1.8552   1.9791   1.9852   2.0362   2.1346   2.2511   2.3785   2.5723
     2.5786   2.5918   2.6930   2.8532   3.1692   3.1753   3.3115   3.5237
     3.7635   3.8653   3.8725   3.8948   3.9938   4.0949   4.3067   4.4567
     4.4618   4.5255   4.6592   4.8413   4.8631   4.8823   4.9414   5.1290
     5.3153   5.4721   5.6053   5.7079   5.7446   5.7512   5.9157   6.0681
     6.2517   6.4296   6.4493   6.4818   6.4907   6.5542   6.5768   6.8275
     6.8384   7.0316   7.0354   7.2017   7.3723   7.4317   7.4347   7.5449
     7.5877   7.7794   7.8629   8.0174   8.0609   8.0800   8.1760   8.2037
     8.3028   8.3884   8.5914   8.6394   8.6639   8.6710

          k = 0.0254 0.0179 0.0000 ( 50993 PWs)   bands (ev):

    -7.1703  -6.7238  -5.1143  -4.7462  -4.7461  -4.4499  -4.4217  -4.4217
    -4.1616  -4.1546  -3.3980  -3.3980  -3.3188  -2.9755  -2.9640  -2.9577
    -2.9577  -2.8863  -2.8863  -2.8342  -2.6707  -2.6707  -2.4554  -2.2456
    -2.2002  -2.2000  -2.1404  -2.1403  -2.1061  -2.0299  -2.0299  -2.0067
    -2.0067  -1.9533  -1.8894  -1.8893  -1.8583  -1.8583  -1.7641  -1.7641
    -1.7301  -1.7300  -1.7064  -1.7064  -1.6283  -1.6283  -1.6021  -1.6021
    -1.4727  -1.4727  -1.4679  -1.4140  -1.4139  -1.4055  -1.4054  -1.3848
    -1.1850  -1.1537  -1.1111  -1.1110  -1.0672  -1.0298  -0.9898  -0.9896
    -0.9718  -0.9716  -0.9069  -0.9069  -0.7912  -0.7870  -0.7870  -0.7264
    -0.7038  -0.6763  -0.6763  -0.6591  -0.6589  -0.6253  -0.6252  -0.5904
    -0.3934  -0.3933  -0.3519  -0.3518  -0.3492  -0.3491  -0.3450  -0.3008
    -0.2950  -0.2949  -0.2897  -0.2783  -0.2736  -0.2714  -0.2545  -0.1948
    -0.1948  -0.1945  -0.1770  -0.1455  -0.1339  -0.1339  -0.1235  -0.1142
    -0.0925  -0.0924  -0.0663  -0.0662   0.0368   0.0474   0.0777   0.0778
     0.0788   0.1429   0.1430   0.1847   0.1848   0.2447   0.2824   0.2824
     0.3964   0.3981   0.4207   0.4208   0.4444   0.4494   0.4497   0.5386
     0.5386   0.5676   0.6031   0.6032   0.6319   0.6462   0.6462   0.7292
     0.7341   0.7342   0.8090   0.8310   0.8702   0.9295   0.9297   0.9297
     0.9662   0.9663   0.9666   0.9667   0.9802   0.9983   0.9984   1.0748
     1.0821   1.0870   1.0871   1.1461   1.1466   1.1466   1.2406   1.2407
     1.2639   1.2639   1.2685   1.2750   1.2751   1.2969   1.3041   1.3046
     1.3047   1.3221   1.3221   1.3311   1.3312   1.3428   1.3428   1.3542
     1.3638   1.3639   1.4125   1.4382   1.4382   1.4963   1.5098   1.5099
     1.5246   1.5250   1.5590   1.6137   1.6138   1.6153   1.6481   1.6605
     1.6605   1.6781   1.6788   1.7034   1.7035   1.7626   2.0931   2.0931
     2.4866   2.4867   2.6359   2.7715   3.3380   3.3952   3.3954   3.4993
     3.6126   3.6127   3.6701   3.9568   4.0043   4.0044   4.1748   4.5477
     4.5478   4.5575   5.1206   5.2172   5.2173   5.2992   5.4680   5.5655
     5.5656   5.5928   5.9298   5.9299   5.9898   6.1889   6.2525   6.2527
     6.2667   6.5242   6.5244   6.6876   6.6880   6.8242   6.8243   7.0892
     7.0916   7.1285   7.1288   7.4830   7.7256   7.7256   7.7332   7.7333
     7.7539   7.7555   7.7838   7.9138   7.9141   7.9311   7.9312   8.0412
     8.2724   8.2725   8.3778   8.3779   8.4075   8.4297

          k = 0.0254 0.0718 0.0000 ( 51003 PWs)   bands (ev):

    -6.8647  -6.4259  -5.9964  -5.5894  -4.8495  -4.1823  -4.1582  -3.9190
    -3.8851  -3.5499  -3.5158  -3.3559  -3.3380  -3.2140  -3.0643  -2.9703
    -2.9329  -2.8026  -2.7655  -2.7380  -2.7290  -2.6597  -2.4333  -2.3833
    -2.3625  -2.3130  -2.2586  -2.2413  -2.2348  -2.2001  -2.1798  -2.0334
    -2.0275  -1.9863  -1.9614  -1.9161  -1.8716  -1.8497  -1.8253  -1.7617
    -1.7564  -1.6996  -1.6842  -1.6687  -1.6380  -1.5333  -1.4753  -1.4534
    -1.4449  -1.4305  -1.4246  -1.4098  -1.3483  -1.2916  -1.2621  -1.2498
    -1.2123  -1.1858  -1.1831  -1.1670  -1.1446  -1.1328  -1.1026  -0.9725
    -0.9519  -0.9274  -0.9071  -0.8532  -0.8131  -0.8113  -0.7851  -0.7439
    -0.7386  -0.7127  -0.6769  -0.6489  -0.6297  -0.6192  -0.6103  -0.6048
    -0.5987  -0.5857  -0.5758  -0.4807  -0.4656  -0.4214  -0.4115  -0.3867
    -0.3799  -0.3639  -0.3565  -0.3354  -0.3195  -0.2853  -0.2795  -0.2336
    -0.2110  -0.2017  -0.1870  -0.1550  -0.1511  -0.1055  -0.0904  -0.0670
    -0.0315  -0.0209   0.0216   0.0389   0.0612   0.1196   0.1354   0.1423
     0.1514   0.1893   0.2159   0.2641   0.2696   0.2720   0.3001   0.3408
     0.3774   0.3795   0.3909   0.4083   0.4090   0.4343   0.4565   0.4745
     0.5008   0.5094   0.5193   0.5452   0.5547   0.5980   0.6334   0.6403
     0.7466   0.7551   0.7724   0.7803   0.7932   0.8016   0.8161   0.8601
     0.9136   0.9139   0.9289   0.9395   1.0091   1.0660   1.0950   1.0962
     1.0982   1.1069   1.1146   1.1306   1.1577   1.1654   1.1854   1.2059
     1.2175   1.2472   1.2570   1.2616   1.2654   1.2721   1.2912   1.2973
     1.3121   1.3181   1.3237   1.3294   1.3721   1.3731   1.4594   1.4751
     1.4905   1.4938   1.4999   1.5128   1.5612   1.5642   1.5673   1.5772
     1.6184   1.6281   1.6287   1.6318   1.6344   1.6498   1.6564   1.7144
     1.8551   1.9791   1.9852   2.0362   2.1346   2.2511   2.3786   2.5723
     2.5786   2.5917   2.6930   2.8531   3.1692   3.1753   3.3115   3.5237
     3.7635   3.8654   3.8724   3.8948   3.9938   4.0949   4.3067   4.4568
     4.4618   4.5255   4.6592   4.8413   4.8631   4.8823   4.9414   5.1289
     5.3153   5.4721   5.6053   5.7079   5.7446   5.7512   5.9157   6.0681
     6.2517   6.4296   6.4493   6.4818   6.4907   6.5542   6.5768   6.8275
     6.8384   7.0316   7.0354   7.2017   7.3723   7.4317   7.4347   7.5449
     7.5877   7.7794   7.8629   8.0174   8.0609   8.0800   8.1760   8.2037
     8.3028   8.3884   8.5914   8.6393   8.6639   8.6710

          k = 0.0254-0.0359 0.0000 ( 51064 PWs)   bands (ev):

    -7.0141  -6.1359  -5.7309  -5.7306  -4.9518  -4.9515  -4.2896  -3.6262
    -3.6251  -3.4776  -3.4774  -3.1583  -3.1583  -3.1389  -3.1386  -3.0181
    -2.8140  -2.8138  -2.6762  -2.6761  -2.6621  -2.6621  -2.6517  -2.4791
    -2.4791  -2.3183  -2.2817  -2.2558  -2.2555  -2.1538  -2.0990  -2.0826
    -2.0825  -2.0348  -2.0253  -2.0252  -1.9304  -1.8780  -1.8108  -1.6992
    -1.6947  -1.6549  -1.6546  -1.6115  -1.6113  -1.5774  -1.5769  -1.5381
    -1.5378  -1.5223  -1.4786  -1.2800  -1.2439  -1.2355  -1.2352  -1.1103
    -1.1101  -1.0933  -1.0563  -1.0513  -1.0510  -1.0442  -1.0188  -1.0186
    -0.9722  -0.9382  -0.9381  -0.9278  -0.9277  -0.9212  -0.9211  -0.8638
    -0.8637  -0.7771  -0.7769  -0.6945  -0.6407  -0.6405  -0.6088  -0.5729
    -0.5728  -0.4828  -0.4768  -0.4758  -0.4756  -0.4538  -0.4536  -0.3908
    -0.3907  -0.3703  -0.3200  -0.3101  -0.3100  -0.2472  -0.2471  -0.2333
    -0.1896  -0.1862  -0.1682  -0.1681  -0.1202  -0.1202  -0.0789  -0.0787
    -0.0486  -0.0486  -0.0066  -0.0065   0.0509   0.0511   0.1011   0.1013
     0.1052   0.1485   0.1487   0.2058   0.2508   0.2815   0.3036   0.3321
     0.3323   0.3982   0.4009   0.4011   0.4118   0.4119   0.5117   0.5118
     0.5125   0.5126   0.5725   0.5727   0.5824   0.6350   0.6816   0.6816
     0.6918   0.6919   0.7450   0.8266   0.8266   0.8545   0.8868   0.9767
     0.9984   0.9987   1.0027   1.0073   1.0100   1.0101   1.0134   1.0402
     1.0405   1.0406   1.0567   1.1541   1.1542   1.1614   1.1615   1.1627
     1.1629   1.1898   1.1919   1.2591   1.2960   1.3021   1.3050   1.3427
     1.3427   1.3486   1.3487   1.3569   1.3570   1.3785   1.3787   1.4078
     1.4278   1.4281   1.4282   1.4909   1.5847   1.5986   1.5986   1.5990
     1.5990   1.6101   1.6281   1.6282   1.6349   1.6796   1.7197   1.9299
     1.9300   2.0355   2.0356   2.1734   2.2219   2.2370   2.2372   2.3264
     2.4228   2.4230   3.0914   3.0916   3.2665   3.2667   3.4963   3.4964
     3.6838   3.7468   3.8509   3.8509   3.8955   4.1533   4.1535   4.2090
     4.2094   4.3227   4.3990   4.7889   4.7889   5.1708   5.3170   5.3173
     5.4263   5.4918   5.5985   5.5986   5.6230   5.6231   5.6287   6.1661
     6.1665   6.3434   6.3734   6.4364   6.4628   6.4629   6.8579   6.8581
     6.8584   7.0667   7.0669   7.0962   7.3266   7.3266   7.6549   7.6550
     7.6621   7.6621   7.7077   7.7079   7.9574   8.3511   8.3512   8.3515
     8.3516   8.4233   8.5709   8.5710   8.6354   8.7672

     the Fermi energy is     0.5631 ev

!    total energy              =   -2884.45867108 Ry
     Harris-Foulkes estimate   =   -2884.45857630 Ry
     estimated scf accuracy    <       0.00000068 Ry

     The total energy is the sum of the following terms:

     one-electron contribution =  -14891.11514758 Ry
     hartree contribution      =    7757.24188919 Ry
     xc contribution           =   -1326.96237028 Ry
     ewald contribution        =    5576.49903378 Ry
     electric field correction =       0.00000210 Ry
     smearing contrib. (-TS)   =      -0.12207829 Ry

     total magnetization       =    63.49 Bohr mag/cell
     absolute magnetization    =    69.96 Bohr mag/cell

     convergence has been achieved in  18 iterations

     Forces acting on atoms (Ry/au):


     negative rho (up, down):  4.022E-03 1.318E-02
     atom    1 type  1   force =     0.00000640   -0.00000836    0.03003286
     atom    2 type  1   force =     0.00005717    0.00002562   -0.02948531
     atom    3 type  1   force =     0.00001764    0.00000786   -0.00000511
     atom    4 type  1   force =     0.00006311    0.00001196   -0.00057900
     atom    5 type  1   force =    -0.00000697    0.00000178    0.03003402
     atom    6 type  1   force =     0.00005154    0.00002569   -0.02945543
     atom    7 type  1   force =     0.00001807    0.00003329   -0.00000184
     atom    8 type  1   force =     0.00005353    0.00005698   -0.00063577
     atom    9 type  1   force =     0.00000779    0.00001058    0.03003770
     atom   10 type  1   force =     0.00004103    0.00005469   -0.02946763
     atom   11 type  1   force =    -0.00000238   -0.00000868   -0.00001907
     atom   12 type  1   force =     0.00005168    0.00004619   -0.00060680
     atom   13 type  1   force =     0.00002179    0.00002012    0.03005263
     atom   14 type  1   force =    -0.00002127   -0.00000732   -0.02951721
     atom   15 type  1   force =     0.00000745   -0.00002792   -0.00002212
     atom   16 type  1   force =    -0.00000658    0.00002761   -0.00052287
     atom   17 type  1   force =     0.00003894    0.00000107    0.03005824
     atom   18 type  1   force =    -0.00001567   -0.00002177   -0.02951672
     atom   19 type  1   force =    -0.00006236   -0.00000320   -0.00000911
     atom   20 type  1   force =     0.00004393   -0.00002405   -0.00051548
     atom   21 type  1   force =     0.00001941    0.00003737    0.03005892
     atom   22 type  1   force =    -0.00000852   -0.00000163   -0.02951795
     atom   23 type  1   force =    -0.00004321   -0.00003265   -0.00000226
     atom   24 type  1   force =    -0.00000293    0.00001159   -0.00050256
     atom   25 type  1   force =    -0.00002322   -0.00002699    0.03005109
     atom   26 type  1   force =    -0.00004455   -0.00002562   -0.02948800
     atom   27 type  1   force =     0.00000323    0.00005404    0.00001235
     atom   28 type  1   force =    -0.00007377   -0.00004684   -0.00054462
     atom   29 type  1   force =    -0.00002142   -0.00003645    0.03007770
     atom   30 type  1   force =    -0.00003528   -0.00003259   -0.02947474
     atom   31 type  1   force =     0.00002998    0.00001437    0.00002615
     atom   32 type  1   force =    -0.00008873   -0.00003486   -0.00057717
     atom   33 type  1   force =    -0.00003861   -0.00000261    0.03005533
     atom   34 type  1   force =    -0.00002993   -0.00001720   -0.02947219
     atom   35 type  1   force =     0.00004475   -0.00000505    0.00001941
     atom   36 type  1   force =    -0.00005205   -0.00007703   -0.00057745

     Total force =     0.126319     Total SCF correction =     0.001703
 !ASE

     Writing output data file calc.save
 
     init_run     :     35.31s CPU     42.10s WALL (       1 calls)
     electrons    :  13951.46s CPU  16517.09s WALL (       5 calls)
     update_pot   :      8.41s CPU      9.26s WALL (       4 calls)
     forces       :    195.51s CPU    202.09s WALL (       5 calls)

     Called by init_run:
     wfcinit      :     24.68s CPU     30.84s WALL (       1 calls)
     potinit      :      1.10s CPU      1.24s WALL (       1 calls)

     Called by electrons:
     c_bands      :   9352.78s CPU  11343.20s WALL (     179 calls)
     sum_band     :   3299.80s CPU   3776.65s WALL (     179 calls)
     v_of_rho     :    107.78s CPU    127.25s WALL (     184 calls)
     newd         :   1192.48s CPU   1265.52s WALL (     184 calls)
     mix_rho      :     22.41s CPU     26.96s WALL (     179 calls)

     Called by c_bands:
     init_us_2    :     42.41s CPU     45.92s WALL (    3640 calls)
     cegterg      :   9152.13s CPU  11133.43s WALL (    1790 calls)

     Called by *egterg:
     h_psi        :   5477.98s CPU   7126.26s WALL (    5001 calls)
     s_psi        :    573.52s CPU    592.71s WALL (    5001 calls)
     g_psi        :     20.64s CPU     21.18s WALL (    3201 calls)
     cdiaghg      :   1066.00s CPU   1092.81s WALL (    4951 calls)

     Called by h_psi:
     add_vuspsi   :    580.01s CPU    598.10s WALL (    5001 calls)

     General routines
     calbec       :    913.95s CPU    936.50s WALL (    6841 calls)
     fft          :    105.95s CPU    126.09s WALL (    5749 calls)
     ffts         :      1.32s CPU      1.85s WALL (     726 calls)
     fftw         :   3213.68s CPU   5131.35s WALL ( 2464858 calls)
     interpolate  :     12.96s CPU     18.51s WALL (     726 calls)
     davcio       :      0.02s CPU      0.80s WALL (      10 calls)
 
     Parallel routines
     fft_scatter  :   1793.65s CPU   2960.02s WALL ( 2471333 calls)
 
     PWSCF        :     3h56m CPU        4h40m WALL

 
   This run was terminated on:   7:53:36  21Feb2018            

=------------------------------------------------------------------------------=
   JOB DONE.
=------------------------------------------------------------------------------=
