  python dir          : /home/vossj/suncat/lib/python2.7/site-packages/espresso
  espresso dir        : /home/vossj/suncat/esdld/espresso-dynpy-beef/bin
  pseudo dir          : /home/alatimer/bin/psp/esp_psp_w_gbrvRu/
  ase-espresso py git : ffa2778-git



     Program PWSCF v.5.1rc2 (svn rev. ) starts on 10Mar2017 at 14:54:58 

     This program is part of the open-source Quantum ESPRESSO suite
     for quantum simulation of materials; please cite
         "P. Giannozzi et al., J. Phys.:Condens. Matter 21 395502 (2009);
          URL http://www.quantum-espresso.org", 
     in publications or presentations arising from this work. More details at
     http://www.quantum-espresso.org/quote

     Parallel version (MPI), running on    16 processors
     R & G space division:  proc/nbgrp/npool/nimage =      16
     Reading input from pw.inp
     Message from routine read_cards :
     DEPRECATED: no units specified in CELL_PARAMETERS card

     Current dimensions of program PWSCF are:
     Max number of different atomic species (ntypx) = 10
     Max number of k-points (npk) =  40000
     Max angular momentum in pseudopotentials (lmaxx) =  3
     Presently no symmetry can be used with electric field


     IMPORTANT: XC functional enforced from input :
     Exchange-correlation      = RPBE ( 1  4 28  4 0)
     Any further DFT definition will be discarded
     Please, verify this is what you really want

               file Ni.UPF: wavefunction(s)  3D renormalized

     Subspace diagonalization in iterative solution of the eigenvalue problem:
     a serial algorithm will be used

 
     Parallelization info
     --------------------
     sticks:   dense  smooth     PW     G-vecs:    dense   smooth      PW
     Min         386     154     42                68872    17389    2480
     Max         387     155     43                68885    17439    2491
     Sum        6181    2479    673              1102011   278611   39737
 
     Generating pointlists ...
     new r_m :   0.4125 (alat units)  0.7795 (a.u.) for type    1
     new r_m :   0.4125 (alat units)  0.7795 (a.u.) for type    2


     bravais-lattice index     =            0
     lattice parameter (alat)  =       1.8897  a.u.
     unit-cell volume          =    7046.4111 (a.u.)^3
     number of atoms/cell      =           37
     number of atomic types    =            2
     number of electrons       =       364.00
     number of Kohn-Sham states=          282
     kinetic-energy cutoff     =      44.0992  Ry
     charge density cutoff     =     440.9919  Ry
     convergence threshold     =      7.3E-07
     mixing beta               =       0.1000
     number of iterations used =           10  plain     mixing
     Exchange-correlation      = RPBE ( 1  4 28  4 0)
     nstep                     =           50


     celldm(1)=   1.889726  celldm(2)=   0.000000  celldm(3)=   0.000000
     celldm(4)=   0.000000  celldm(5)=   0.000000  celldm(6)=   0.000000

     crystal axes: (cart. coord. in units of alat)
               a(1) = (   7.548011   0.000000   0.000000 )  
               a(2) = (  -3.774005   6.536769   0.000000 )  
               a(3) = (   0.000000   0.000000  21.162925 )  

     reciprocal axes: (cart. coord. in units 2 pi/alat)
               b(1) = (  0.132485  0.076490  0.000000 )  
               b(2) = (  0.000000  0.152981  0.000000 )  
               b(3) = (  0.000000  0.000000  0.047252 )  


     PseudoPot. # 1 for Ni read from file:
     /home/alatimer/bin/psp/esp_psp_w_gbrvRu/Ni.UPF
     MD5 check sum: 8b2449ee0060d9c33484ccd47bb60870
     Pseudo is Ultrasoft + core correction, Zval = 10.0
     Generated using "atomic" code by A. Dal Corso  v.5.0.2 svn rev. 9415
     Using radial grid of 1195 points,  6 beta functions with: 
                l(1) =   0
                l(2) =   0
                l(3) =   1
                l(4) =   1
                l(5) =   2
                l(6) =   2
     Q(r) pseudized with 0 coefficients 


     PseudoPot. # 2 for  C read from file:
     /home/alatimer/bin/psp/esp_psp_w_gbrvRu/C.UPF
     MD5 check sum: ab446d787031eba755f1d5ee46644bb0
     Pseudo is Ultrasoft + core correction, Zval =  4.0
     Generated using "atomic" code by A. Dal Corso  v.5.0.2 svn rev. 9415
     Using radial grid of 1073 points,  4 beta functions with: 
                l(1) =   0
                l(2) =   0
                l(3) =   1
                l(4) =   1
     Q(r) pseudized with 0 coefficients 


     atomic species   valence    mass     pseudopotential
        Ni1           10.00    58.69340     Ni( 1.00)
        C1             4.00    12.01100      C( 1.00)

     Starting magnetic structure 
     atomic species   magnetization
        Ni1          0.300
        C1           0.750

     No symmetry found



   Cartesian axes

     site n.     atom                  positions (alat units)
         1           Ni1 tau(   1) = (   0.0000000   0.0000000   7.5000000  )
         2           Ni1 tau(   2) = (   1.2580018   0.7263077   9.5543084  )
         3           Ni1 tau(   3) = (   0.0000000   1.4526154  11.6086168  )
         4           Ni1 tau(   4) = (   1.2580018   2.1789231  13.6629252  )
         5           Ni1 tau(   5) = (  -1.2580018   2.1789231   7.5000000  )
         6           Ni1 tau(   6) = (   0.0000000   2.9052308   9.5543084  )
         7           Ni1 tau(   7) = (  -1.2580018   3.6315385  11.6086168  )
         8           Ni1 tau(   8) = (  -0.0000000   4.3578462  13.6629252  )
         9           Ni1 tau(   9) = (  -2.5160037   4.3578462   7.5000000  )
        10           Ni1 tau(  10) = (  -1.2580018   5.0841539   9.5543084  )
        11           Ni1 tau(  11) = (  -2.5160037   5.8104616  11.6086168  )
        12           Ni1 tau(  12) = (  -1.2580018   6.5367693  13.6629252  )
        13           Ni1 tau(  13) = (   2.5160037   0.0000000   7.5000000  )
        14           Ni1 tau(  14) = (   3.7740055   0.7263077   9.5543084  )
        15           Ni1 tau(  15) = (   2.5160037   1.4526154  11.6086168  )
        16           Ni1 tau(  16) = (   3.7740055   2.1789231  13.6629252  )
        17           Ni1 tau(  17) = (   1.2580018   2.1789231   7.5000000  )
        18           Ni1 tau(  18) = (   2.5160037   2.9052308   9.5543084  )
        19           Ni1 tau(  19) = (   1.2580018   3.6315385  11.6086168  )
        20           Ni1 tau(  20) = (   2.5160037   4.3578462  13.6629252  )
        21           Ni1 tau(  21) = (  -0.0000000   4.3578462   7.5000000  )
        22           Ni1 tau(  22) = (   1.2580018   5.0841539   9.5543084  )
        23           Ni1 tau(  23) = (  -0.0000000   5.8104616  11.6086168  )
        24           Ni1 tau(  24) = (   1.2580018   6.5367693  13.6629252  )
        25           Ni1 tau(  25) = (   5.0320073   0.0000000   7.5000000  )
        26           Ni1 tau(  26) = (   6.2900092   0.7263077   9.5543084  )
        27           Ni1 tau(  27) = (   5.0320073   1.4526154  11.6086168  )
        28           Ni1 tau(  28) = (   6.2900092   2.1789231  13.6629252  )
        29           Ni1 tau(  29) = (   3.7740055   2.1789231   7.5000000  )
        30           Ni1 tau(  30) = (   5.0320073   2.9052308   9.5543084  )
        31           Ni1 tau(  31) = (   3.7740055   3.6315385  11.6086168  )
        32           Ni1 tau(  32) = (   5.0320073   4.3578462  13.6629252  )
        33           Ni1 tau(  33) = (   2.5160037   4.3578462   7.5000000  )
        34           Ni1 tau(  34) = (   3.7740055   5.0841539   9.5543084  )
        35           Ni1 tau(  35) = (   2.5160037   5.8104616  11.6086168  )
        36           Ni1 tau(  36) = (   3.7740055   6.5367693  13.6629252  )
        37           C1  tau(  37) = (   2.5160037   2.9052308  14.8629252  )

     number of k points=    10  Fermi-Dirac smearing, width (Ry)=  0.0073
                       cart. coord. in units 2pi/alat
        k(    1) = (   0.0000000   0.0000000   0.0000000), wk =   0.1111111
        k(    2) = (   0.0000000   0.0509936   0.0000000), wk =   0.2222222
        k(    3) = (   0.0441617   0.0254968   0.0000000), wk =   0.2222222
        k(    4) = (   0.0441617   0.0764904   0.0000000), wk =   0.2222222
        k(    5) = (   0.0441617  -0.0254968   0.0000000), wk =   0.2222222
        k(    6) = (   0.0000000   0.0000000   0.0000000), wk =   0.1111111
        k(    7) = (   0.0000000   0.0509936   0.0000000), wk =   0.2222222
        k(    8) = (   0.0441617   0.0254968   0.0000000), wk =   0.2222222
        k(    9) = (   0.0441617   0.0764904   0.0000000), wk =   0.2222222
        k(   10) = (   0.0441617  -0.0254968   0.0000000), wk =   0.2222222

     Dense  grid:  1102011 G-vectors     FFT dimensions: (  96,  96, 270)

     Smooth grid:   278611 G-vectors     FFT dimensions: (  64,  64, 180)

     Largest allocated arrays     est. size (Mb)     dimensions
        Kohn-Sham Wavefunctions         9.39 Mb     (    2183,  282)
        NL pseudopotentials            21.85 Mb     (    2183,  656)
        Each V/rho on FFT grid          4.78 Mb     (  156672,   2)
        Each G-vector array             0.53 Mb     (   68874)
        G-vector shells                 0.19 Mb     (   24563)
     Largest temporary arrays     est. size (Mb)     dimensions
        Auxiliary wavefunctions        37.57 Mb     (    2183, 1128)
        Each subspace H/S matrix       19.42 Mb     (    1128, 1128)
        Each <psi_i|beta_j> matrix      2.82 Mb     (     656,  282)
        Arrays for rho mixing          23.91 Mb     (  156672,   10)

     Initial potential from superposition of free atoms
     Check: negative starting charge=(component1):   -0.000344
     Check: negative starting charge=(component2):   -0.000191

     starting charge  363.99092, renormalised to  364.00000

     negative rho (up, down):  3.444E-04 1.914E-04
 
     Adding external electric field

     Computed dipole along edir(3) : 
        Dipole               -0.0005 Ry au,         -0.0012 Debye
        Dipole field         -0.0000 Ry au
 
        Potential amp.        0.0001 Ry
        Total length         38.9923 bohr
 
 
     Adding external electric field

     Computed dipole along edir(3) : 
        Dipole               -0.0005 Ry au,         -0.0012 Debye
        Dipole field         -0.0000 Ry au
 
        Potential amp.        0.0001 Ry
        Total length         38.9923 bohr
 
     Starting wfc are  328 randomized atomic wfcs

     total cpu time spent up to now is       31.1 secs

     Self-consistent Calculation

     iteration #  1     ecut=    44.10 Ry     beta=0.10
     Davidson diagonalization with overlap
     ethr =  1.00E-02,  avg # of iterations =  7.0

     negative rho (up, down):  3.083E-04 1.666E-04
 
     Adding external electric field

     Computed dipole along edir(3) : 
        Dipole               -0.9488 Ry au,         -2.4116 Debye
        Dipole field         -0.0017 Ry au
 
        Potential amp.        0.1320 Ry
        Total length         38.9923 bohr
 
 
     Adding external electric field

     Computed dipole along edir(3) : 
        Dipole               -0.9488 Ry au,         -2.4116 Debye
        Dipole field         -0.0017 Ry au
 
        Potential amp.        0.1320 Ry
        Total length         38.9923 bohr
 
 
     Magnetic moment per site:
     atom:    1    charge:    3.9465    magn:    1.1287    constr:    0.0000
     atom:    2    charge:    3.9663    magn:    1.1131    constr:    0.0000
     atom:    3    charge:    3.9689    magn:    1.1098    constr:    0.0000
     atom:    4    charge:    3.9605    magn:    1.1116    constr:    0.0000
     atom:    5    charge:    3.9465    magn:    1.1287    constr:    0.0000
     atom:    6    charge:    3.9663    magn:    1.1132    constr:    0.0000
     atom:    7    charge:    3.9667    magn:    1.1126    constr:    0.0000
     atom:    8    charge:    3.9483    magn:    1.1277    constr:    0.0000
     atom:    9    charge:    3.9468    magn:    1.1282    constr:    0.0000
     atom:   10    charge:    3.9664    magn:    1.1132    constr:    0.0000
     atom:   11    charge:    3.9667    magn:    1.1126    constr:    0.0000
     atom:   12    charge:    3.9483    magn:    1.1277    constr:    0.0000
     atom:   13    charge:    3.9468    magn:    1.1282    constr:    0.0000
     atom:   14    charge:    3.9663    magn:    1.1132    constr:    0.0000
     atom:   15    charge:    3.9689    magn:    1.1112    constr:    0.0000
     atom:   16    charge:    3.9605    magn:    1.1116    constr:    0.0000
     atom:   17    charge:    3.9467    magn:    1.1282    constr:    0.0000
     atom:   18    charge:    3.9664    magn:    1.1128    constr:    0.0000
     atom:   19    charge:    3.9689    magn:    1.1112    constr:    0.0000
     atom:   20    charge:    3.9605    magn:    1.1116    constr:    0.0000
     atom:   21    charge:    3.9468    magn:    1.1283    constr:    0.0000
     atom:   22    charge:    3.9663    magn:    1.1132    constr:    0.0000
     atom:   23    charge:    3.9667    magn:    1.1126    constr:    0.0000
     atom:   24    charge:    3.9479    magn:    1.1278    constr:    0.0000
     atom:   25    charge:    3.9465    magn:    1.1287    constr:    0.0000
     atom:   26    charge:    3.9663    magn:    1.1122    constr:    0.0000
     atom:   27    charge:    3.9689    magn:    1.1099    constr:    0.0000
     atom:   28    charge:    3.9479    magn:    1.1278    constr:    0.0000
     atom:   29    charge:    3.9467    magn:    1.1282    constr:    0.0000
     atom:   30    charge:    3.9663    magn:    1.1131    constr:    0.0000
     atom:   31    charge:    3.9689    magn:    1.1112    constr:    0.0000
     atom:   32    charge:    3.9483    magn:    1.1277    constr:    0.0000
     atom:   33    charge:    3.9466    magn:    1.1282    constr:    0.0000
     atom:   34    charge:    3.9663    magn:    1.1132    constr:    0.0000
     atom:   35    charge:    3.9689    magn:    1.1098    constr:    0.0000
     atom:   36    charge:    3.9479    magn:    1.1279    constr:    0.0000
     atom:   37    charge:    0.5801    magn:    0.4031    constr:    0.0000

     total cpu time spent up to now is      154.6 secs

     total energy              =   -3632.14223798 Ry
     Harris-Foulkes estimate   =   -3632.98614407 Ry
     estimated scf accuracy    <       9.57196606 Ry

     total magnetization       =    37.42 Bohr mag/cell
     absolute magnetization    =    37.43 Bohr mag/cell

     iteration #  2     ecut=    44.10 Ry     beta=0.10
     Davidson diagonalization with overlap
     ethr =  2.63E-03,  avg # of iterations =  2.7

     negative rho (up, down):  3.053E-04 1.885E-04
 
     Adding external electric field

     Computed dipole along edir(3) : 
        Dipole                0.6048 Ry au,          1.5372 Debye
        Dipole field          0.0011 Ry au
 
        Potential amp.       -0.0841 Ry
        Total length         38.9923 bohr
 
 
     Adding external electric field

     Computed dipole along edir(3) : 
        Dipole                0.6048 Ry au,          1.5372 Debye
        Dipole field          0.0011 Ry au
 
        Potential amp.       -0.0841 Ry
        Total length         38.9923 bohr
 
 
     Magnetic moment per site:
     atom:    1    charge:    3.9591    magn:    1.1095    constr:    0.0000
     atom:    2    charge:    3.9647    magn:    1.1035    constr:    0.0000
     atom:    3    charge:    3.9557    magn:    1.1106    constr:    0.0000
     atom:    4    charge:    3.9604    magn:    1.1007    constr:    0.0000
     atom:    5    charge:    3.9591    magn:    1.1095    constr:    0.0000
     atom:    6    charge:    3.9647    magn:    1.1035    constr:    0.0000
     atom:    7    charge:    3.9550    magn:    1.1123    constr:    0.0000
     atom:    8    charge:    3.9543    magn:    1.1140    constr:    0.0000
     atom:    9    charge:    3.9594    magn:    1.1091    constr:    0.0000
     atom:   10    charge:    3.9649    magn:    1.1036    constr:    0.0000
     atom:   11    charge:    3.9550    magn:    1.1123    constr:    0.0000
     atom:   12    charge:    3.9542    magn:    1.1140    constr:    0.0000
     atom:   13    charge:    3.9594    magn:    1.1091    constr:    0.0000
     atom:   14    charge:    3.9647    magn:    1.1035    constr:    0.0000
     atom:   15    charge:    3.9549    magn:    1.1129    constr:    0.0000
     atom:   16    charge:    3.9604    magn:    1.1007    constr:    0.0000
     atom:   17    charge:    3.9593    magn:    1.1091    constr:    0.0000
     atom:   18    charge:    3.9646    magn:    1.1033    constr:    0.0000
     atom:   19    charge:    3.9549    magn:    1.1129    constr:    0.0000
     atom:   20    charge:    3.9604    magn:    1.1007    constr:    0.0000
     atom:   21    charge:    3.9594    magn:    1.1091    constr:    0.0000
     atom:   22    charge:    3.9647    magn:    1.1036    constr:    0.0000
     atom:   23    charge:    3.9550    magn:    1.1123    constr:    0.0000
     atom:   24    charge:    3.9538    magn:    1.1142    constr:    0.0000
     atom:   25    charge:    3.9591    magn:    1.1095    constr:    0.0000
     atom:   26    charge:    3.9645    magn:    1.1026    constr:    0.0000
     atom:   27    charge:    3.9557    magn:    1.1106    constr:    0.0000
     atom:   28    charge:    3.9538    magn:    1.1141    constr:    0.0000
     atom:   29    charge:    3.9593    magn:    1.1091    constr:    0.0000
     atom:   30    charge:    3.9647    magn:    1.1035    constr:    0.0000
     atom:   31    charge:    3.9549    magn:    1.1129    constr:    0.0000
     atom:   32    charge:    3.9543    magn:    1.1140    constr:    0.0000
     atom:   33    charge:    3.9593    magn:    1.1091    constr:    0.0000
     atom:   34    charge:    3.9647    magn:    1.1035    constr:    0.0000
     atom:   35    charge:    3.9557    magn:    1.1106    constr:    0.0000
     atom:   36    charge:    3.9538    magn:    1.1142    constr:    0.0000
     atom:   37    charge:    0.5820    magn:    0.4003    constr:    0.0000

     total cpu time spent up to now is      230.0 secs

     total energy              =   -3631.74376354 Ry
     Harris-Foulkes estimate   =   -3634.52894164 Ry
     estimated scf accuracy    <      79.87011226 Ry

     total magnetization       =    41.12 Bohr mag/cell
     absolute magnetization    =    41.16 Bohr mag/cell

     iteration #  3     ecut=    44.10 Ry     beta=0.10
     Davidson diagonalization with overlap
     ethr =  2.63E-03,  avg # of iterations =  2.8

     negative rho (up, down):  3.068E-04 2.124E-04
 
     Adding external electric field

     Computed dipole along edir(3) : 
        Dipole               -0.3489 Ry au,         -0.8869 Debye
        Dipole field         -0.0006 Ry au
 
        Potential amp.        0.0485 Ry
        Total length         38.9923 bohr
 
 
     Adding external electric field

     Computed dipole along edir(3) : 
        Dipole               -0.3489 Ry au,         -0.8869 Debye
        Dipole field         -0.0006 Ry au
 
        Potential amp.        0.0485 Ry
        Total length         38.9923 bohr
 
 
     Magnetic moment per site:
     atom:    1    charge:    3.9613    magn:    1.0987    constr:    0.0000
     atom:    2    charge:    3.9582    magn:    1.0984    constr:    0.0000
     atom:    3    charge:    3.9545    magn:    1.1009    constr:    0.0000
     atom:    4    charge:    3.9655    magn:    1.0856    constr:    0.0000
     atom:    5    charge:    3.9613    magn:    1.0987    constr:    0.0000
     atom:    6    charge:    3.9582    magn:    1.0984    constr:    0.0000
     atom:    7    charge:    3.9547    magn:    1.1021    constr:    0.0000
     atom:    8    charge:    3.9639    magn:    1.0965    constr:    0.0000
     atom:    9    charge:    3.9614    magn:    1.0983    constr:    0.0000
     atom:   10    charge:    3.9583    magn:    1.0985    constr:    0.0000
     atom:   11    charge:    3.9547    magn:    1.1021    constr:    0.0000
     atom:   12    charge:    3.9639    magn:    1.0965    constr:    0.0000
     atom:   13    charge:    3.9614    magn:    1.0983    constr:    0.0000
     atom:   14    charge:    3.9582    magn:    1.0984    constr:    0.0000
     atom:   15    charge:    3.9535    magn:    1.1035    constr:    0.0000
     atom:   16    charge:    3.9655    magn:    1.0856    constr:    0.0000
     atom:   17    charge:    3.9614    magn:    1.0982    constr:    0.0000
     atom:   18    charge:    3.9578    magn:    1.0983    constr:    0.0000
     atom:   19    charge:    3.9535    magn:    1.1036    constr:    0.0000
     atom:   20    charge:    3.9656    magn:    1.0856    constr:    0.0000
     atom:   21    charge:    3.9614    magn:    1.0983    constr:    0.0000
     atom:   22    charge:    3.9582    magn:    1.0984    constr:    0.0000
     atom:   23    charge:    3.9547    magn:    1.1021    constr:    0.0000
     atom:   24    charge:    3.9635    magn:    1.0967    constr:    0.0000
     atom:   25    charge:    3.9613    magn:    1.0986    constr:    0.0000
     atom:   26    charge:    3.9580    magn:    1.0973    constr:    0.0000
     atom:   27    charge:    3.9545    magn:    1.1009    constr:    0.0000
     atom:   28    charge:    3.9634    magn:    1.0967    constr:    0.0000
     atom:   29    charge:    3.9614    magn:    1.0982    constr:    0.0000
     atom:   30    charge:    3.9582    magn:    1.0984    constr:    0.0000
     atom:   31    charge:    3.9535    magn:    1.1036    constr:    0.0000
     atom:   32    charge:    3.9639    magn:    1.0965    constr:    0.0000
     atom:   33    charge:    3.9614    magn:    1.0982    constr:    0.0000
     atom:   34    charge:    3.9582    magn:    1.0984    constr:    0.0000
     atom:   35    charge:    3.9545    magn:    1.1009    constr:    0.0000
     atom:   36    charge:    3.9634    magn:    1.0967    constr:    0.0000
     atom:   37    charge:    0.5847    magn:    0.3976    constr:    0.0000

     total cpu time spent up to now is      305.1 secs

     total energy              =   -3632.32064260 Ry
     Harris-Foulkes estimate   =   -3633.81685554 Ry
     estimated scf accuracy    <      89.57509544 Ry

     total magnetization       =    39.89 Bohr mag/cell
     absolute magnetization    =    39.96 Bohr mag/cell

     iteration #  4     ecut=    44.10 Ry     beta=0.10
     Davidson diagonalization with overlap
     ethr =  2.63E-03,  avg # of iterations =  1.1

     negative rho (up, down):  3.062E-04 2.173E-04
 
     Adding external electric field

     Computed dipole along edir(3) : 
        Dipole                0.0318 Ry au,          0.0807 Debye
        Dipole field          0.0001 Ry au
 
        Potential amp.       -0.0044 Ry
        Total length         38.9923 bohr
 
 
     Adding external electric field

     Computed dipole along edir(3) : 
        Dipole                0.0318 Ry au,          0.0807 Debye
        Dipole field          0.0001 Ry au
 
        Potential amp.       -0.0044 Ry
        Total length         38.9923 bohr
 
 
     Magnetic moment per site:
     atom:    1    charge:    3.9720    magn:    1.0521    constr:    0.0000
     atom:    2    charge:    3.9526    magn:    1.0631    constr:    0.0000
     atom:    3    charge:    3.9636    magn:    1.0536    constr:    0.0000
     atom:    4    charge:    3.9603    magn:    1.0447    constr:    0.0000
     atom:    5    charge:    3.9720    magn:    1.0520    constr:    0.0000
     atom:    6    charge:    3.9526    magn:    1.0631    constr:    0.0000
     atom:    7    charge:    3.9631    magn:    1.0559    constr:    0.0000
     atom:    8    charge:    3.9644    magn:    1.0599    constr:    0.0000
     atom:    9    charge:    3.9718    magn:    1.0519    constr:    0.0000
     atom:   10    charge:    3.9522    magn:    1.0638    constr:    0.0000
     atom:   11    charge:    3.9631    magn:    1.0559    constr:    0.0000
     atom:   12    charge:    3.9644    magn:    1.0599    constr:    0.0000
     atom:   13    charge:    3.9718    magn:    1.0519    constr:    0.0000
     atom:   14    charge:    3.9526    magn:    1.0631    constr:    0.0000
     atom:   15    charge:    3.9631    magn:    1.0568    constr:    0.0000
     atom:   16    charge:    3.9603    magn:    1.0447    constr:    0.0000
     atom:   17    charge:    3.9722    magn:    1.0514    constr:    0.0000
     atom:   18    charge:    3.9526    magn:    1.0626    constr:    0.0000
     atom:   19    charge:    3.9631    magn:    1.0568    constr:    0.0000
     atom:   20    charge:    3.9603    magn:    1.0447    constr:    0.0000
     atom:   21    charge:    3.9718    magn:    1.0519    constr:    0.0000
     atom:   22    charge:    3.9526    magn:    1.0631    constr:    0.0000
     atom:   23    charge:    3.9631    magn:    1.0559    constr:    0.0000
     atom:   24    charge:    3.9661    magn:    1.0581    constr:    0.0000
     atom:   25    charge:    3.9720    magn:    1.0520    constr:    0.0000
     atom:   26    charge:    3.9520    magn:    1.0618    constr:    0.0000
     atom:   27    charge:    3.9636    magn:    1.0536    constr:    0.0000
     atom:   28    charge:    3.9661    magn:    1.0581    constr:    0.0000
     atom:   29    charge:    3.9722    magn:    1.0514    constr:    0.0000
     atom:   30    charge:    3.9526    magn:    1.0631    constr:    0.0000
     atom:   31    charge:    3.9631    magn:    1.0568    constr:    0.0000
     atom:   32    charge:    3.9644    magn:    1.0599    constr:    0.0000
     atom:   33    charge:    3.9722    magn:    1.0514    constr:    0.0000
     atom:   34    charge:    3.9526    magn:    1.0631    constr:    0.0000
     atom:   35    charge:    3.9636    magn:    1.0536    constr:    0.0000
     atom:   36    charge:    3.9661    magn:    1.0581    constr:    0.0000
     atom:   37    charge:    0.5906    magn:    0.3854    constr:    0.0000

     total cpu time spent up to now is      372.8 secs

     total energy              =   -3633.04531496 Ry
     Harris-Foulkes estimate   =   -3633.16604319 Ry
     estimated scf accuracy    <      16.58123774 Ry

     total magnetization       =    37.91 Bohr mag/cell
     absolute magnetization    =    37.96 Bohr mag/cell

     iteration #  5     ecut=    44.10 Ry     beta=0.10
     Davidson diagonalization with overlap
     ethr =  2.63E-03,  avg # of iterations =  1.0

     negative rho (up, down):  3.017E-04 1.938E-04
 
     Adding external electric field

     Computed dipole along edir(3) : 
        Dipole               -0.2079 Ry au,         -0.5285 Debye
        Dipole field         -0.0004 Ry au
 
        Potential amp.        0.0289 Ry
        Total length         38.9923 bohr
 
 
     Adding external electric field

     Computed dipole along edir(3) : 
        Dipole               -0.2079 Ry au,         -0.5285 Debye
        Dipole field         -0.0004 Ry au
 
        Potential amp.        0.0289 Ry
        Total length         38.9923 bohr
 
 
     Magnetic moment per site:
     atom:    1    charge:    3.9808    magn:    0.9536    constr:    0.0000
     atom:    2    charge:    3.9611    magn:    0.9620    constr:    0.0000
     atom:    3    charge:    3.9618    magn:    0.9587    constr:    0.0000
     atom:    4    charge:    3.9612    magn:    0.9367    constr:    0.0000
     atom:    5    charge:    3.9808    magn:    0.9536    constr:    0.0000
     atom:    6    charge:    3.9611    magn:    0.9620    constr:    0.0000
     atom:    7    charge:    3.9614    magn:    0.9625    constr:    0.0000
     atom:    8    charge:    3.9789    magn:    0.9599    constr:    0.0000
     atom:    9    charge:    3.9809    magn:    0.9530    constr:    0.0000
     atom:   10    charge:    3.9608    magn:    0.9630    constr:    0.0000
     atom:   11    charge:    3.9614    magn:    0.9625    constr:    0.0000
     atom:   12    charge:    3.9789    magn:    0.9599    constr:    0.0000
     atom:   13    charge:    3.9809    magn:    0.9531    constr:    0.0000
     atom:   14    charge:    3.9611    magn:    0.9620    constr:    0.0000
     atom:   15    charge:    3.9634    magn:    0.9627    constr:    0.0000
     atom:   16    charge:    3.9612    magn:    0.9367    constr:    0.0000
     atom:   17    charge:    3.9809    magn:    0.9526    constr:    0.0000
     atom:   18    charge:    3.9614    magn:    0.9611    constr:    0.0000
     atom:   19    charge:    3.9634    magn:    0.9627    constr:    0.0000
     atom:   20    charge:    3.9612    magn:    0.9367    constr:    0.0000
     atom:   21    charge:    3.9809    magn:    0.9531    constr:    0.0000
     atom:   22    charge:    3.9611    magn:    0.9620    constr:    0.0000
     atom:   23    charge:    3.9614    magn:    0.9624    constr:    0.0000
     atom:   24    charge:    3.9796    magn:    0.9580    constr:    0.0000
     atom:   25    charge:    3.9808    magn:    0.9536    constr:    0.0000
     atom:   26    charge:    3.9602    magn:    0.9596    constr:    0.0000
     atom:   27    charge:    3.9618    magn:    0.9587    constr:    0.0000
     atom:   28    charge:    3.9796    magn:    0.9580    constr:    0.0000
     atom:   29    charge:    3.9809    magn:    0.9526    constr:    0.0000
     atom:   30    charge:    3.9611    magn:    0.9620    constr:    0.0000
     atom:   31    charge:    3.9634    magn:    0.9627    constr:    0.0000
     atom:   32    charge:    3.9789    magn:    0.9599    constr:    0.0000
     atom:   33    charge:    3.9809    magn:    0.9526    constr:    0.0000
     atom:   34    charge:    3.9611    magn:    0.9620    constr:    0.0000
     atom:   35    charge:    3.9618    magn:    0.9587    constr:    0.0000
     atom:   36    charge:    3.9796    magn:    0.9580    constr:    0.0000
     atom:   37    charge:    0.6042    magn:    0.3563    constr:    0.0000

     total cpu time spent up to now is      440.3 secs

     total energy              =   -3633.56184792 Ry
     Harris-Foulkes estimate   =   -3633.32636692 Ry
     estimated scf accuracy    <       9.12355878 Ry

     total magnetization       =    38.36 Bohr mag/cell
     absolute magnetization    =    38.48 Bohr mag/cell

     iteration #  6     ecut=    44.10 Ry     beta=0.10
     Davidson diagonalization with overlap
     ethr =  2.51E-03,  avg # of iterations =  1.0

     negative rho (up, down):  2.993E-04 1.928E-04
 
     Adding external electric field

     Computed dipole along edir(3) : 
        Dipole               -0.2435 Ry au,         -0.6189 Debye
        Dipole field         -0.0004 Ry au
 
        Potential amp.        0.0339 Ry
        Total length         38.9923 bohr
 
 
     Adding external electric field

     Computed dipole along edir(3) : 
        Dipole               -0.2435 Ry au,         -0.6189 Debye
        Dipole field         -0.0004 Ry au
 
        Potential amp.        0.0339 Ry
        Total length         38.9923 bohr
 
 
     Magnetic moment per site:
     atom:    1    charge:    3.9780    magn:    0.8998    constr:    0.0000
     atom:    2    charge:    3.9619    magn:    0.9067    constr:    0.0000
     atom:    3    charge:    3.9635    magn:    0.9017    constr:    0.0000
     atom:    4    charge:    3.9683    magn:    0.8665    constr:    0.0000
     atom:    5    charge:    3.9780    magn:    0.8998    constr:    0.0000
     atom:    6    charge:    3.9619    magn:    0.9067    constr:    0.0000
     atom:    7    charge:    3.9618    magn:    0.9076    constr:    0.0000
     atom:    8    charge:    3.9761    magn:    0.9072    constr:    0.0000
     atom:    9    charge:    3.9776    magn:    0.8995    constr:    0.0000
     atom:   10    charge:    3.9622    magn:    0.9077    constr:    0.0000
     atom:   11    charge:    3.9618    magn:    0.9076    constr:    0.0000
     atom:   12    charge:    3.9761    magn:    0.9072    constr:    0.0000
     atom:   13    charge:    3.9776    magn:    0.8995    constr:    0.0000
     atom:   14    charge:    3.9619    magn:    0.9067    constr:    0.0000
     atom:   15    charge:    3.9626    magn:    0.9084    constr:    0.0000
     atom:   16    charge:    3.9683    magn:    0.8665    constr:    0.0000
     atom:   17    charge:    3.9786    magn:    0.8979    constr:    0.0000
     atom:   18    charge:    3.9617    magn:    0.9064    constr:    0.0000
     atom:   19    charge:    3.9626    magn:    0.9084    constr:    0.0000
     atom:   20    charge:    3.9684    magn:    0.8665    constr:    0.0000
     atom:   21    charge:    3.9776    magn:    0.8995    constr:    0.0000
     atom:   22    charge:    3.9619    magn:    0.9067    constr:    0.0000
     atom:   23    charge:    3.9618    magn:    0.9076    constr:    0.0000
     atom:   24    charge:    3.9764    magn:    0.9049    constr:    0.0000
     atom:   25    charge:    3.9780    magn:    0.8998    constr:    0.0000
     atom:   26    charge:    3.9624    magn:    0.9026    constr:    0.0000
     atom:   27    charge:    3.9635    magn:    0.9017    constr:    0.0000
     atom:   28    charge:    3.9763    magn:    0.9049    constr:    0.0000
     atom:   29    charge:    3.9786    magn:    0.8979    constr:    0.0000
     atom:   30    charge:    3.9619    magn:    0.9067    constr:    0.0000
     atom:   31    charge:    3.9626    magn:    0.9084    constr:    0.0000
     atom:   32    charge:    3.9761    magn:    0.9072    constr:    0.0000
     atom:   33    charge:    3.9786    magn:    0.8979    constr:    0.0000
     atom:   34    charge:    3.9619    magn:    0.9067    constr:    0.0000
     atom:   35    charge:    3.9635    magn:    0.9017    constr:    0.0000
     atom:   36    charge:    3.9763    magn:    0.9049    constr:    0.0000
     atom:   37    charge:    0.6076    magn:    0.3361    constr:    0.0000

     total cpu time spent up to now is      507.8 secs

     total energy              =   -3633.83932339 Ry
     Harris-Foulkes estimate   =   -3633.66326013 Ry
     estimated scf accuracy    <       3.27228794 Ry

     total magnetization       =    37.38 Bohr mag/cell
     absolute magnetization    =    37.75 Bohr mag/cell

     iteration #  7     ecut=    44.10 Ry     beta=0.10
     Davidson diagonalization with overlap
     ethr =  8.99E-04,  avg # of iterations =  2.6

     negative rho (up, down):  3.023E-04 2.045E-04
 
     Adding external electric field

     Computed dipole along edir(3) : 
        Dipole               -0.2243 Ry au,         -0.5701 Debye
        Dipole field         -0.0004 Ry au
 
        Potential amp.        0.0312 Ry
        Total length         38.9923 bohr
 
 
     Adding external electric field

     Computed dipole along edir(3) : 
        Dipole               -0.2243 Ry au,         -0.5701 Debye
        Dipole field         -0.0004 Ry au
 
        Potential amp.        0.0312 Ry
        Total length         38.9923 bohr
 
 
     Magnetic moment per site:
     atom:    1    charge:    3.9706    magn:    0.8067    constr:    0.0000
     atom:    2    charge:    3.9642    magn:    0.8092    constr:    0.0000
     atom:    3    charge:    3.9632    magn:    0.8040    constr:    0.0000
     atom:    4    charge:    3.9610    magn:    0.7515    constr:    0.0000
     atom:    5    charge:    3.9706    magn:    0.8067    constr:    0.0000
     atom:    6    charge:    3.9642    magn:    0.8092    constr:    0.0000
     atom:    7    charge:    3.9657    magn:    0.8085    constr:    0.0000
     atom:    8    charge:    3.9785    magn:    0.8081    constr:    0.0000
     atom:    9    charge:    3.9721    magn:    0.8045    constr:    0.0000
     atom:   10    charge:    3.9650    magn:    0.8101    constr:    0.0000
     atom:   11    charge:    3.9657    magn:    0.8085    constr:    0.0000
     atom:   12    charge:    3.9785    magn:    0.8081    constr:    0.0000
     atom:   13    charge:    3.9721    magn:    0.8045    constr:    0.0000
     atom:   14    charge:    3.9642    magn:    0.8092    constr:    0.0000
     atom:   15    charge:    3.9625    magn:    0.8122    constr:    0.0000
     atom:   16    charge:    3.9610    magn:    0.7515    constr:    0.0000
     atom:   17    charge:    3.9706    magn:    0.8047    constr:    0.0000
     atom:   18    charge:    3.9644    magn:    0.8095    constr:    0.0000
     atom:   19    charge:    3.9625    magn:    0.8122    constr:    0.0000
     atom:   20    charge:    3.9610    magn:    0.7515    constr:    0.0000
     atom:   21    charge:    3.9721    magn:    0.8045    constr:    0.0000
     atom:   22    charge:    3.9642    magn:    0.8092    constr:    0.0000
     atom:   23    charge:    3.9657    magn:    0.8085    constr:    0.0000
     atom:   24    charge:    3.9762    magn:    0.8065    constr:    0.0000
     atom:   25    charge:    3.9705    magn:    0.8067    constr:    0.0000
     atom:   26    charge:    3.9624    magn:    0.8064    constr:    0.0000
     atom:   27    charge:    3.9632    magn:    0.8040    constr:    0.0000
     atom:   28    charge:    3.9762    magn:    0.8064    constr:    0.0000
     atom:   29    charge:    3.9706    magn:    0.8047    constr:    0.0000
     atom:   30    charge:    3.9642    magn:    0.8092    constr:    0.0000
     atom:   31    charge:    3.9625    magn:    0.8122    constr:    0.0000
     atom:   32    charge:    3.9785    magn:    0.8081    constr:    0.0000
     atom:   33    charge:    3.9706    magn:    0.8047    constr:    0.0000
     atom:   34    charge:    3.9642    magn:    0.8092    constr:    0.0000
     atom:   35    charge:    3.9632    magn:    0.8041    constr:    0.0000
     atom:   36    charge:    3.9762    magn:    0.8064    constr:    0.0000
     atom:   37    charge:    0.6088    magn:    0.2966    constr:    0.0000

     total cpu time spent up to now is      581.9 secs

     total energy              =   -3634.15491445 Ry
     Harris-Foulkes estimate   =   -3633.87000345 Ry
     estimated scf accuracy    <       1.12068003 Ry

     total magnetization       =    35.92 Bohr mag/cell
     absolute magnetization    =    36.50 Bohr mag/cell

     iteration #  8     ecut=    44.10 Ry     beta=0.10
     Davidson diagonalization with overlap
     ethr =  3.08E-04,  avg # of iterations =  8.5

     negative rho (up, down):  3.230E-04 2.626E-04
 
     Adding external electric field

     Computed dipole along edir(3) : 
        Dipole               -0.0929 Ry au,         -0.2362 Debye
        Dipole field         -0.0002 Ry au
 
        Potential amp.        0.0129 Ry
        Total length         38.9923 bohr
 
 
     Adding external electric field

     Computed dipole along edir(3) : 
        Dipole               -0.0929 Ry au,         -0.2362 Debye
        Dipole field         -0.0002 Ry au
 
        Potential amp.        0.0129 Ry
        Total length         38.9923 bohr
 
 
     Magnetic moment per site:
     atom:    1    charge:    3.9676    magn:    0.6916    constr:    0.0000
     atom:    2    charge:    3.9654    magn:    0.6940    constr:    0.0000
     atom:    3    charge:    3.9659    magn:    0.6848    constr:    0.0000
     atom:    4    charge:    3.9597    magn:    0.6072    constr:    0.0000
     atom:    5    charge:    3.9676    magn:    0.6916    constr:    0.0000
     atom:    6    charge:    3.9655    magn:    0.6940    constr:    0.0000
     atom:    7    charge:    3.9611    magn:    0.6968    constr:    0.0000
     atom:    8    charge:    3.9735    magn:    0.6961    constr:    0.0000
     atom:    9    charge:    3.9669    magn:    0.6908    constr:    0.0000
     atom:   10    charge:    3.9616    magn:    0.6990    constr:    0.0000
     atom:   11    charge:    3.9611    magn:    0.6968    constr:    0.0000
     atom:   12    charge:    3.9735    magn:    0.6961    constr:    0.0000
     atom:   13    charge:    3.9669    magn:    0.6908    constr:    0.0000
     atom:   14    charge:    3.9655    magn:    0.6940    constr:    0.0000
     atom:   15    charge:    3.9703    magn:    0.6906    constr:    0.0000
     atom:   16    charge:    3.9597    magn:    0.6072    constr:    0.0000
     atom:   17    charge:    3.9684    magn:    0.6885    constr:    0.0000
     atom:   18    charge:    3.9679    magn:    0.6934    constr:    0.0000
     atom:   19    charge:    3.9703    magn:    0.6906    constr:    0.0000
     atom:   20    charge:    3.9597    magn:    0.6072    constr:    0.0000
     atom:   21    charge:    3.9669    magn:    0.6908    constr:    0.0000
     atom:   22    charge:    3.9655    magn:    0.6940    constr:    0.0000
     atom:   23    charge:    3.9612    magn:    0.6968    constr:    0.0000
     atom:   24    charge:    3.9750    magn:    0.6899    constr:    0.0000
     atom:   25    charge:    3.9676    magn:    0.6916    constr:    0.0000
     atom:   26    charge:    3.9659    magn:    0.6892    constr:    0.0000
     atom:   27    charge:    3.9660    magn:    0.6848    constr:    0.0000
     atom:   28    charge:    3.9750    magn:    0.6899    constr:    0.0000
     atom:   29    charge:    3.9684    magn:    0.6885    constr:    0.0000
     atom:   30    charge:    3.9654    magn:    0.6940    constr:    0.0000
     atom:   31    charge:    3.9703    magn:    0.6906    constr:    0.0000
     atom:   32    charge:    3.9735    magn:    0.6961    constr:    0.0000
     atom:   33    charge:    3.9684    magn:    0.6885    constr:    0.0000
     atom:   34    charge:    3.9654    magn:    0.6940    constr:    0.0000
     atom:   35    charge:    3.9660    magn:    0.6848    constr:    0.0000
     atom:   36    charge:    3.9750    magn:    0.6899    constr:    0.0000
     atom:   37    charge:    0.6082    magn:    0.2468    constr:    0.0000

     total cpu time spent up to now is      685.6 secs

     total energy              =   -3634.42111212 Ry
     Harris-Foulkes estimate   =   -3634.19998399 Ry
     estimated scf accuracy    <       3.06212297 Ry

     total magnetization       =    34.05 Bohr mag/cell
     absolute magnetization    =    35.13 Bohr mag/cell

     iteration #  9     ecut=    44.10 Ry     beta=0.10
     Davidson diagonalization with overlap
     ethr =  3.08E-04,  avg # of iterations =  1.0

     negative rho (up, down):  3.718E-04 3.712E-04
 
     Adding external electric field

     Computed dipole along edir(3) : 
        Dipole                0.0377 Ry au,          0.0957 Debye
        Dipole field          0.0001 Ry au
 
        Potential amp.       -0.0052 Ry
        Total length         38.9923 bohr
 
 
     Adding external electric field

     Computed dipole along edir(3) : 
        Dipole                0.0377 Ry au,          0.0957 Debye
        Dipole field          0.0001 Ry au
 
        Potential amp.       -0.0052 Ry
        Total length         38.9923 bohr
 
 
     Magnetic moment per site:
     atom:    1    charge:    3.9662    magn:    0.5587    constr:    0.0000
     atom:    2    charge:    3.9671    magn:    0.5618    constr:    0.0000
     atom:    3    charge:    3.9685    magn:    0.5489    constr:    0.0000
     atom:    4    charge:    3.9594    magn:    0.4389    constr:    0.0000
     atom:    5    charge:    3.9662    magn:    0.5587    constr:    0.0000
     atom:    6    charge:    3.9670    magn:    0.5618    constr:    0.0000
     atom:    7    charge:    3.9672    magn:    0.5607    constr:    0.0000
     atom:    8    charge:    3.9727    magn:    0.5634    constr:    0.0000
     atom:    9    charge:    3.9668    magn:    0.5567    constr:    0.0000
     atom:   10    charge:    3.9694    magn:    0.5628    constr:    0.0000
     atom:   11    charge:    3.9672    magn:    0.5607    constr:    0.0000
     atom:   12    charge:    3.9727    magn:    0.5635    constr:    0.0000
     atom:   13    charge:    3.9668    magn:    0.5567    constr:    0.0000
     atom:   14    charge:    3.9670    magn:    0.5618    constr:    0.0000
     atom:   15    charge:    3.9708    magn:    0.5568    constr:    0.0000
     atom:   16    charge:    3.9594    magn:    0.4389    constr:    0.0000
     atom:   17    charge:    3.9660    magn:    0.5562    constr:    0.0000
     atom:   18    charge:    3.9635    magn:    0.5669    constr:    0.0000
     atom:   19    charge:    3.9707    magn:    0.5568    constr:    0.0000
     atom:   20    charge:    3.9594    magn:    0.4389    constr:    0.0000
     atom:   21    charge:    3.9668    magn:    0.5567    constr:    0.0000
     atom:   22    charge:    3.9670    magn:    0.5618    constr:    0.0000
     atom:   23    charge:    3.9672    magn:    0.5607    constr:    0.0000
     atom:   24    charge:    3.9672    magn:    0.5610    constr:    0.0000
     atom:   25    charge:    3.9662    magn:    0.5587    constr:    0.0000
     atom:   26    charge:    3.9677    magn:    0.5572    constr:    0.0000
     atom:   27    charge:    3.9685    magn:    0.5489    constr:    0.0000
     atom:   28    charge:    3.9672    magn:    0.5610    constr:    0.0000
     atom:   29    charge:    3.9660    magn:    0.5562    constr:    0.0000
     atom:   30    charge:    3.9671    magn:    0.5618    constr:    0.0000
     atom:   31    charge:    3.9708    magn:    0.5568    constr:    0.0000
     atom:   32    charge:    3.9727    magn:    0.5634    constr:    0.0000
     atom:   33    charge:    3.9660    magn:    0.5562    constr:    0.0000
     atom:   34    charge:    3.9671    magn:    0.5618    constr:    0.0000
     atom:   35    charge:    3.9685    magn:    0.5489    constr:    0.0000
     atom:   36    charge:    3.9672    magn:    0.5610    constr:    0.0000
     atom:   37    charge:    0.6055    magn:    0.1868    constr:    0.0000

     total cpu time spent up to now is      753.2 secs

     total energy              =   -3634.61932660 Ry
     Harris-Foulkes estimate   =   -3634.48046653 Ry
     estimated scf accuracy    <       0.90627321 Ry

     total magnetization       =    30.76 Bohr mag/cell
     absolute magnetization    =    32.73 Bohr mag/cell

     iteration # 10     ecut=    44.10 Ry     beta=0.10
     Davidson diagonalization with overlap
     ethr =  2.49E-04,  avg # of iterations =  3.7

     negative rho (up, down):  3.815E-04 3.912E-04
 
     Adding external electric field

     Computed dipole along edir(3) : 
        Dipole               -0.0196 Ry au,         -0.0499 Debye
        Dipole field         -0.0000 Ry au
 
        Potential amp.        0.0027 Ry
        Total length         38.9923 bohr
 
 
     Adding external electric field

     Computed dipole along edir(3) : 
        Dipole               -0.0196 Ry au,         -0.0499 Debye
        Dipole field         -0.0000 Ry au
 
        Potential amp.        0.0027 Ry
        Total length         38.9923 bohr
 
 
     Magnetic moment per site:
     atom:    1    charge:    3.9652    magn:    0.5076    constr:    0.0000
     atom:    2    charge:    3.9689    magn:    0.5096    constr:    0.0000
     atom:    3    charge:    3.9702    magn:    0.4961    constr:    0.0000
     atom:    4    charge:    3.9584    magn:    0.3721    constr:    0.0000
     atom:    5    charge:    3.9652    magn:    0.5076    constr:    0.0000
     atom:    6    charge:    3.9689    magn:    0.5096    constr:    0.0000
     atom:    7    charge:    3.9700    magn:    0.5082    constr:    0.0000
     atom:    8    charge:    3.9708    magn:    0.5133    constr:    0.0000
     atom:    9    charge:    3.9649    magn:    0.5062    constr:    0.0000
     atom:   10    charge:    3.9687    magn:    0.5124    constr:    0.0000
     atom:   11    charge:    3.9700    magn:    0.5082    constr:    0.0000
     atom:   12    charge:    3.9708    magn:    0.5133    constr:    0.0000
     atom:   13    charge:    3.9649    magn:    0.5062    constr:    0.0000
     atom:   14    charge:    3.9689    magn:    0.5096    constr:    0.0000
     atom:   15    charge:    3.9692    magn:    0.5060    constr:    0.0000
     atom:   16    charge:    3.9584    magn:    0.3721    constr:    0.0000
     atom:   17    charge:    3.9672    magn:    0.5035    constr:    0.0000
     atom:   18    charge:    3.9693    magn:    0.5134    constr:    0.0000
     atom:   19    charge:    3.9692    magn:    0.5060    constr:    0.0000
     atom:   20    charge:    3.9584    magn:    0.3721    constr:    0.0000
     atom:   21    charge:    3.9649    magn:    0.5062    constr:    0.0000
     atom:   22    charge:    3.9689    magn:    0.5096    constr:    0.0000
     atom:   23    charge:    3.9700    magn:    0.5081    constr:    0.0000
     atom:   24    charge:    3.9684    magn:    0.5083    constr:    0.0000
     atom:   25    charge:    3.9652    magn:    0.5076    constr:    0.0000
     atom:   26    charge:    3.9693    magn:    0.5058    constr:    0.0000
     atom:   27    charge:    3.9702    magn:    0.4961    constr:    0.0000
     atom:   28    charge:    3.9684    magn:    0.5083    constr:    0.0000
     atom:   29    charge:    3.9672    magn:    0.5035    constr:    0.0000
     atom:   30    charge:    3.9689    magn:    0.5096    constr:    0.0000
     atom:   31    charge:    3.9692    magn:    0.5060    constr:    0.0000
     atom:   32    charge:    3.9708    magn:    0.5133    constr:    0.0000
     atom:   33    charge:    3.9672    magn:    0.5035    constr:    0.0000
     atom:   34    charge:    3.9689    magn:    0.5096    constr:    0.0000
     atom:   35    charge:    3.9702    magn:    0.4961    constr:    0.0000
     atom:   36    charge:    3.9684    magn:    0.5083    constr:    0.0000
     atom:   37    charge:    0.6021    magn:    0.1605    constr:    0.0000

     total cpu time spent up to now is      831.7 secs

     total energy              =   -3634.69517019 Ry
     Harris-Foulkes estimate   =   -3634.68264690 Ry
     estimated scf accuracy    <       2.62275596 Ry

     total magnetization       =    26.30 Bohr mag/cell
     absolute magnetization    =    29.60 Bohr mag/cell

     iteration # 11     ecut=    44.10 Ry     beta=0.10
     Davidson diagonalization with overlap
     ethr =  2.49E-04,  avg # of iterations =  1.0

     negative rho (up, down):  4.005E-04 4.290E-04
 
     Adding external electric field

     Computed dipole along edir(3) : 
        Dipole               -0.1272 Ry au,         -0.3232 Debye
        Dipole field         -0.0002 Ry au
 
        Potential amp.        0.0177 Ry
        Total length         38.9923 bohr
 
 
     Adding external electric field

     Computed dipole along edir(3) : 
        Dipole               -0.1272 Ry au,         -0.3232 Debye
        Dipole field         -0.0002 Ry au
 
        Potential amp.        0.0177 Ry
        Total length         38.9923 bohr
 
 
     Magnetic moment per site:
     atom:    1    charge:    3.9666    magn:    0.4385    constr:    0.0000
     atom:    2    charge:    3.9714    magn:    0.4402    constr:    0.0000
     atom:    3    charge:    3.9701    magn:    0.4276    constr:    0.0000
     atom:    4    charge:    3.9580    magn:    0.2805    constr:    0.0000
     atom:    5    charge:    3.9666    magn:    0.4385    constr:    0.0000
     atom:    6    charge:    3.9714    magn:    0.4402    constr:    0.0000
     atom:    7    charge:    3.9713    magn:    0.4399    constr:    0.0000
     atom:    8    charge:    3.9712    magn:    0.4447    constr:    0.0000
     atom:    9    charge:    3.9675    magn:    0.4361    constr:    0.0000
     atom:   10    charge:    3.9708    magn:    0.4433    constr:    0.0000
     atom:   11    charge:    3.9713    magn:    0.4399    constr:    0.0000
     atom:   12    charge:    3.9712    magn:    0.4447    constr:    0.0000
     atom:   13    charge:    3.9675    magn:    0.4361    constr:    0.0000
     atom:   14    charge:    3.9714    magn:    0.4402    constr:    0.0000
     atom:   15    charge:    3.9717    magn:    0.4353    constr:    0.0000
     atom:   16    charge:    3.9580    magn:    0.2804    constr:    0.0000
     atom:   17    charge:    3.9653    magn:    0.4367    constr:    0.0000
     atom:   18    charge:    3.9736    magn:    0.4452    constr:    0.0000
     atom:   19    charge:    3.9717    magn:    0.4353    constr:    0.0000
     atom:   20    charge:    3.9580    magn:    0.2805    constr:    0.0000
     atom:   21    charge:    3.9675    magn:    0.4361    constr:    0.0000
     atom:   22    charge:    3.9714    magn:    0.4402    constr:    0.0000
     atom:   23    charge:    3.9713    magn:    0.4399    constr:    0.0000
     atom:   24    charge:    3.9679    magn:    0.4398    constr:    0.0000
     atom:   25    charge:    3.9666    magn:    0.4384    constr:    0.0000
     atom:   26    charge:    3.9713    magn:    0.4383    constr:    0.0000
     atom:   27    charge:    3.9701    magn:    0.4276    constr:    0.0000
     atom:   28    charge:    3.9679    magn:    0.4398    constr:    0.0000
     atom:   29    charge:    3.9653    magn:    0.4367    constr:    0.0000
     atom:   30    charge:    3.9714    magn:    0.4402    constr:    0.0000
     atom:   31    charge:    3.9717    magn:    0.4353    constr:    0.0000
     atom:   32    charge:    3.9712    magn:    0.4447    constr:    0.0000
     atom:   33    charge:    3.9653    magn:    0.4367    constr:    0.0000
     atom:   34    charge:    3.9714    magn:    0.4402    constr:    0.0000
     atom:   35    charge:    3.9701    magn:    0.4276    constr:    0.0000
     atom:   36    charge:    3.9679    magn:    0.4398    constr:    0.0000
     atom:   37    charge:    0.5958    magn:    0.1225    constr:    0.0000

     total cpu time spent up to now is      899.3 secs

     total energy              =   -3634.71514405 Ry
     Harris-Foulkes estimate   =   -3634.71179379 Ry
     estimated scf accuracy    <       0.57535010 Ry

     total magnetization       =    24.38 Bohr mag/cell
     absolute magnetization    =    28.24 Bohr mag/cell

     iteration # 12     ecut=    44.10 Ry     beta=0.10
     Davidson diagonalization with overlap
     ethr =  1.58E-04,  avg # of iterations =  2.6

     negative rho (up, down):  4.015E-04 4.337E-04
 
     Adding external electric field

     Computed dipole along edir(3) : 
        Dipole               -0.1790 Ry au,         -0.4551 Debye
        Dipole field         -0.0003 Ry au
 
        Potential amp.        0.0249 Ry
        Total length         38.9923 bohr
 
 
     Adding external electric field

     Computed dipole along edir(3) : 
        Dipole               -0.1790 Ry au,         -0.4551 Debye
        Dipole field         -0.0003 Ry au
 
        Potential amp.        0.0249 Ry
        Total length         38.9923 bohr
 
 
     Magnetic moment per site:
     atom:    1    charge:    3.9685    magn:    0.3960    constr:    0.0000
     atom:    2    charge:    3.9726    magn:    0.3972    constr:    0.0000
     atom:    3    charge:    3.9714    magn:    0.3841    constr:    0.0000
     atom:    4    charge:    3.9581    magn:    0.2203    constr:    0.0000
     atom:    5    charge:    3.9685    magn:    0.3960    constr:    0.0000
     atom:    6    charge:    3.9727    magn:    0.3972    constr:    0.0000
     atom:    7    charge:    3.9715    magn:    0.3978    constr:    0.0000
     atom:    8    charge:    3.9720    magn:    0.4014    constr:    0.0000
     atom:    9    charge:    3.9682    magn:    0.3939    constr:    0.0000
     atom:   10    charge:    3.9729    magn:    0.4001    constr:    0.0000
     atom:   11    charge:    3.9715    magn:    0.3979    constr:    0.0000
     atom:   12    charge:    3.9720    magn:    0.4014    constr:    0.0000
     atom:   13    charge:    3.9682    magn:    0.3939    constr:    0.0000
     atom:   14    charge:    3.9726    magn:    0.3972    constr:    0.0000
     atom:   15    charge:    3.9721    magn:    0.3916    constr:    0.0000
     atom:   16    charge:    3.9581    magn:    0.2203    constr:    0.0000
     atom:   17    charge:    3.9686    magn:    0.3935    constr:    0.0000
     atom:   18    charge:    3.9715    magn:    0.4060    constr:    0.0000
     atom:   19    charge:    3.9721    magn:    0.3916    constr:    0.0000
     atom:   20    charge:    3.9581    magn:    0.2203    constr:    0.0000
     atom:   21    charge:    3.9682    magn:    0.3939    constr:    0.0000
     atom:   22    charge:    3.9727    magn:    0.3972    constr:    0.0000
     atom:   23    charge:    3.9715    magn:    0.3978    constr:    0.0000
     atom:   24    charge:    3.9678    magn:    0.3966    constr:    0.0000
     atom:   25    charge:    3.9684    magn:    0.3960    constr:    0.0000
     atom:   26    charge:    3.9735    magn:    0.3964    constr:    0.0000
     atom:   27    charge:    3.9714    magn:    0.3842    constr:    0.0000
     atom:   28    charge:    3.9678    magn:    0.3966    constr:    0.0000
     atom:   29    charge:    3.9686    magn:    0.3935    constr:    0.0000
     atom:   30    charge:    3.9726    magn:    0.3972    constr:    0.0000
     atom:   31    charge:    3.9721    magn:    0.3916    constr:    0.0000
     atom:   32    charge:    3.9720    magn:    0.4014    constr:    0.0000
     atom:   33    charge:    3.9686    magn:    0.3935    constr:    0.0000
     atom:   34    charge:    3.9726    magn:    0.3972    constr:    0.0000
     atom:   35    charge:    3.9714    magn:    0.3841    constr:    0.0000
     atom:   36    charge:    3.9678    magn:    0.3966    constr:    0.0000
     atom:   37    charge:    0.5903    magn:    0.0951    constr:    0.0000

     total cpu time spent up to now is      972.8 secs

     total energy              =   -3634.72813792 Ry
     Harris-Foulkes estimate   =   -3634.73478774 Ry
     estimated scf accuracy    <       0.39910243 Ry

     total magnetization       =    21.90 Bohr mag/cell
     absolute magnetization    =    26.45 Bohr mag/cell

     iteration # 13     ecut=    44.10 Ry     beta=0.10
     Davidson diagonalization with overlap
     ethr =  1.10E-04,  avg # of iterations =  1.0

     negative rho (up, down):  3.805E-04 3.988E-04
 
     Adding external electric field

     Computed dipole along edir(3) : 
        Dipole               -0.1668 Ry au,         -0.4240 Debye
        Dipole field         -0.0003 Ry au
 
        Potential amp.        0.0232 Ry
        Total length         38.9923 bohr
 
 
     Adding external electric field

     Computed dipole along edir(3) : 
        Dipole               -0.1668 Ry au,         -0.4240 Debye
        Dipole field         -0.0003 Ry au
 
        Potential amp.        0.0232 Ry
        Total length         38.9923 bohr
 
 
     Magnetic moment per site:
     atom:    1    charge:    3.9699    magn:    0.3915    constr:    0.0000
     atom:    2    charge:    3.9721    magn:    0.3927    constr:    0.0000
     atom:    3    charge:    3.9712    magn:    0.3794    constr:    0.0000
     atom:    4    charge:    3.9595    magn:    0.2092    constr:    0.0000
     atom:    5    charge:    3.9699    magn:    0.3915    constr:    0.0000
     atom:    6    charge:    3.9721    magn:    0.3927    constr:    0.0000
     atom:    7    charge:    3.9719    magn:    0.3928    constr:    0.0000
     atom:    8    charge:    3.9714    magn:    0.3963    constr:    0.0000
     atom:    9    charge:    3.9703    magn:    0.3885    constr:    0.0000
     atom:   10    charge:    3.9727    magn:    0.3953    constr:    0.0000
     atom:   11    charge:    3.9719    magn:    0.3928    constr:    0.0000
     atom:   12    charge:    3.9714    magn:    0.3964    constr:    0.0000
     atom:   13    charge:    3.9703    magn:    0.3885    constr:    0.0000
     atom:   14    charge:    3.9721    magn:    0.3927    constr:    0.0000
     atom:   15    charge:    3.9717    magn:    0.3861    constr:    0.0000
     atom:   16    charge:    3.9595    magn:    0.2092    constr:    0.0000
     atom:   17    charge:    3.9700    magn:    0.3889    constr:    0.0000
     atom:   18    charge:    3.9725    magn:    0.4012    constr:    0.0000
     atom:   19    charge:    3.9717    magn:    0.3861    constr:    0.0000
     atom:   20    charge:    3.9595    magn:    0.2092    constr:    0.0000
     atom:   21    charge:    3.9703    magn:    0.3885    constr:    0.0000
     atom:   22    charge:    3.9721    magn:    0.3927    constr:    0.0000
     atom:   23    charge:    3.9719    magn:    0.3928    constr:    0.0000
     atom:   24    charge:    3.9686    magn:    0.3904    constr:    0.0000
     atom:   25    charge:    3.9699    magn:    0.3915    constr:    0.0000
     atom:   26    charge:    3.9720    magn:    0.3932    constr:    0.0000
     atom:   27    charge:    3.9712    magn:    0.3794    constr:    0.0000
     atom:   28    charge:    3.9686    magn:    0.3904    constr:    0.0000
     atom:   29    charge:    3.9700    magn:    0.3889    constr:    0.0000
     atom:   30    charge:    3.9721    magn:    0.3927    constr:    0.0000
     atom:   31    charge:    3.9717    magn:    0.3861    constr:    0.0000
     atom:   32    charge:    3.9714    magn:    0.3964    constr:    0.0000
     atom:   33    charge:    3.9700    magn:    0.3889    constr:    0.0000
     atom:   34    charge:    3.9721    magn:    0.3927    constr:    0.0000
     atom:   35    charge:    3.9712    magn:    0.3794    constr:    0.0000
     atom:   36    charge:    3.9686    magn:    0.3904    constr:    0.0000
     atom:   37    charge:    0.5883    magn:    0.0875    constr:    0.0000

     total cpu time spent up to now is     1040.6 secs

     total energy              =   -3634.72734326 Ry
     Harris-Foulkes estimate   =   -3634.73369818 Ry
     estimated scf accuracy    <       0.48357072 Ry

     total magnetization       =    20.67 Bohr mag/cell
     absolute magnetization    =    25.50 Bohr mag/cell

     iteration # 14     ecut=    44.10 Ry     beta=0.10
     Davidson diagonalization with overlap
     ethr =  1.10E-04,  avg # of iterations =  1.0

     negative rho (up, down):  3.602E-04 3.638E-04
 
     Adding external electric field

     Computed dipole along edir(3) : 
        Dipole               -0.1662 Ry au,         -0.4224 Debye
        Dipole field         -0.0003 Ry au
 
        Potential amp.        0.0231 Ry
        Total length         38.9923 bohr
 
 
     Adding external electric field

     Computed dipole along edir(3) : 
        Dipole               -0.1662 Ry au,         -0.4224 Debye
        Dipole field         -0.0003 Ry au
 
        Potential amp.        0.0231 Ry
        Total length         38.9923 bohr
 
 
     Magnetic moment per site:
     atom:    1    charge:    3.9711    magn:    0.3921    constr:    0.0000
     atom:    2    charge:    3.9718    magn:    0.3933    constr:    0.0000
     atom:    3    charge:    3.9714    magn:    0.3796    constr:    0.0000
     atom:    4    charge:    3.9603    magn:    0.2056    constr:    0.0000
     atom:    5    charge:    3.9711    magn:    0.3921    constr:    0.0000
     atom:    6    charge:    3.9718    magn:    0.3932    constr:    0.0000
     atom:    7    charge:    3.9716    magn:    0.3933    constr:    0.0000
     atom:    8    charge:    3.9722    magn:    0.3959    constr:    0.0000
     atom:    9    charge:    3.9705    magn:    0.3894    constr:    0.0000
     atom:   10    charge:    3.9716    magn:    0.3963    constr:    0.0000
     atom:   11    charge:    3.9716    magn:    0.3933    constr:    0.0000
     atom:   12    charge:    3.9722    magn:    0.3959    constr:    0.0000
     atom:   13    charge:    3.9705    magn:    0.3894    constr:    0.0000
     atom:   14    charge:    3.9718    magn:    0.3933    constr:    0.0000
     atom:   15    charge:    3.9712    magn:    0.3862    constr:    0.0000
     atom:   16    charge:    3.9603    magn:    0.2056    constr:    0.0000
     atom:   17    charge:    3.9702    magn:    0.3900    constr:    0.0000
     atom:   18    charge:    3.9720    magn:    0.4023    constr:    0.0000
     atom:   19    charge:    3.9713    magn:    0.3862    constr:    0.0000
     atom:   20    charge:    3.9603    magn:    0.2056    constr:    0.0000
     atom:   21    charge:    3.9705    magn:    0.3894    constr:    0.0000
     atom:   22    charge:    3.9718    magn:    0.3932    constr:    0.0000
     atom:   23    charge:    3.9716    magn:    0.3933    constr:    0.0000
     atom:   24    charge:    3.9691    magn:    0.3897    constr:    0.0000
     atom:   25    charge:    3.9711    magn:    0.3921    constr:    0.0000
     atom:   26    charge:    3.9729    magn:    0.3937    constr:    0.0000
     atom:   27    charge:    3.9714    magn:    0.3797    constr:    0.0000
     atom:   28    charge:    3.9691    magn:    0.3897    constr:    0.0000
     atom:   29    charge:    3.9702    magn:    0.3900    constr:    0.0000
     atom:   30    charge:    3.9718    magn:    0.3933    constr:    0.0000
     atom:   31    charge:    3.9712    magn:    0.3862    constr:    0.0000
     atom:   32    charge:    3.9722    magn:    0.3959    constr:    0.0000
     atom:   33    charge:    3.9702    magn:    0.3900    constr:    0.0000
     atom:   34    charge:    3.9718    magn:    0.3933    constr:    0.0000
     atom:   35    charge:    3.9714    magn:    0.3796    constr:    0.0000
     atom:   36    charge:    3.9691    magn:    0.3897    constr:    0.0000
     atom:   37    charge:    0.5873    magn:    0.0829    constr:    0.0000

     total cpu time spent up to now is     1108.0 secs

     total energy              =   -3634.73062702 Ry
     Harris-Foulkes estimate   =   -3634.73083672 Ry
     estimated scf accuracy    <       0.02442436 Ry

     total magnetization       =    20.60 Bohr mag/cell
     absolute magnetization    =    25.38 Bohr mag/cell

     iteration # 15     ecut=    44.10 Ry     beta=0.10
     Davidson diagonalization with overlap
     ethr =  6.71E-06,  avg # of iterations =  6.5

     negative rho (up, down):  3.414E-04 3.305E-04
 
     Adding external electric field

     Computed dipole along edir(3) : 
        Dipole               -0.1634 Ry au,         -0.4154 Debye
        Dipole field         -0.0003 Ry au
 
        Potential amp.        0.0227 Ry
        Total length         38.9923 bohr
 
 
     Adding external electric field

     Computed dipole along edir(3) : 
        Dipole               -0.1634 Ry au,         -0.4154 Debye
        Dipole field         -0.0003 Ry au
 
        Potential amp.        0.0227 Ry
        Total length         38.9923 bohr
 
 
     Magnetic moment per site:
     atom:    1    charge:    3.9703    magn:    0.3963    constr:    0.0000
     atom:    2    charge:    3.9710    magn:    0.3965    constr:    0.0000
     atom:    3    charge:    3.9710    magn:    0.3824    constr:    0.0000
     atom:    4    charge:    3.9610    magn:    0.2040    constr:    0.0000
     atom:    5    charge:    3.9703    magn:    0.3963    constr:    0.0000
     atom:    6    charge:    3.9710    magn:    0.3965    constr:    0.0000
     atom:    7    charge:    3.9710    magn:    0.3963    constr:    0.0000
     atom:    8    charge:    3.9728    magn:    0.3979    constr:    0.0000
     atom:    9    charge:    3.9708    magn:    0.3925    constr:    0.0000
     atom:   10    charge:    3.9715    magn:    0.3992    constr:    0.0000
     atom:   11    charge:    3.9710    magn:    0.3963    constr:    0.0000
     atom:   12    charge:    3.9728    magn:    0.3979    constr:    0.0000
     atom:   13    charge:    3.9708    magn:    0.3925    constr:    0.0000
     atom:   14    charge:    3.9710    magn:    0.3965    constr:    0.0000
     atom:   15    charge:    3.9712    magn:    0.3881    constr:    0.0000
     atom:   16    charge:    3.9610    magn:    0.2040    constr:    0.0000
     atom:   17    charge:    3.9709    magn:    0.3932    constr:    0.0000
     atom:   18    charge:    3.9709    magn:    0.4060    constr:    0.0000
     atom:   19    charge:    3.9712    magn:    0.3881    constr:    0.0000
     atom:   20    charge:    3.9610    magn:    0.2040    constr:    0.0000
     atom:   21    charge:    3.9708    magn:    0.3925    constr:    0.0000
     atom:   22    charge:    3.9710    magn:    0.3965    constr:    0.0000
     atom:   23    charge:    3.9710    magn:    0.3963    constr:    0.0000
     atom:   24    charge:    3.9699    magn:    0.3910    constr:    0.0000
     atom:   25    charge:    3.9703    magn:    0.3963    constr:    0.0000
     atom:   26    charge:    3.9711    magn:    0.3982    constr:    0.0000
     atom:   27    charge:    3.9711    magn:    0.3824    constr:    0.0000
     atom:   28    charge:    3.9699    magn:    0.3910    constr:    0.0000
     atom:   29    charge:    3.9709    magn:    0.3932    constr:    0.0000
     atom:   30    charge:    3.9710    magn:    0.3965    constr:    0.0000
     atom:   31    charge:    3.9712    magn:    0.3881    constr:    0.0000
     atom:   32    charge:    3.9728    magn:    0.3979    constr:    0.0000
     atom:   33    charge:    3.9709    magn:    0.3932    constr:    0.0000
     atom:   34    charge:    3.9710    magn:    0.3965    constr:    0.0000
     atom:   35    charge:    3.9711    magn:    0.3824    constr:    0.0000
     atom:   36    charge:    3.9699    magn:    0.3910    constr:    0.0000
     atom:   37    charge:    0.5864    magn:    0.0779    constr:    0.0000

     total cpu time spent up to now is     1199.7 secs

     total energy              =   -3634.73233539 Ry
     Harris-Foulkes estimate   =   -3634.73167678 Ry
     estimated scf accuracy    <       0.03774396 Ry

     total magnetization       =    20.68 Bohr mag/cell
     absolute magnetization    =    25.36 Bohr mag/cell

     iteration # 16     ecut=    44.10 Ry     beta=0.10
     Davidson diagonalization with overlap
     ethr =  6.71E-06,  avg # of iterations =  1.4

     negative rho (up, down):  3.251E-04 3.008E-04
 
     Adding external electric field

     Computed dipole along edir(3) : 
        Dipole               -0.1619 Ry au,         -0.4114 Debye
        Dipole field         -0.0003 Ry au
 
        Potential amp.        0.0225 Ry
        Total length         38.9923 bohr
 
 
     Adding external electric field

     Computed dipole along edir(3) : 
        Dipole               -0.1619 Ry au,         -0.4114 Debye
        Dipole field         -0.0003 Ry au
 
        Potential amp.        0.0225 Ry
        Total length         38.9923 bohr
 
 
     Magnetic moment per site:
     atom:    1    charge:    3.9712    magn:    0.4008    constr:    0.0000
     atom:    2    charge:    3.9697    magn:    0.4013    constr:    0.0000
     atom:    3    charge:    3.9705    magn:    0.3862    constr:    0.0000
     atom:    4    charge:    3.9619    magn:    0.2035    constr:    0.0000
     atom:    5    charge:    3.9712    magn:    0.4008    constr:    0.0000
     atom:    6    charge:    3.9697    magn:    0.4013    constr:    0.0000
     atom:    7    charge:    3.9705    magn:    0.4004    constr:    0.0000
     atom:    8    charge:    3.9736    magn:    0.4009    constr:    0.0000
     atom:    9    charge:    3.9710    magn:    0.3968    constr:    0.0000
     atom:   10    charge:    3.9697    magn:    0.4044    constr:    0.0000
     atom:   11    charge:    3.9705    magn:    0.4004    constr:    0.0000
     atom:   12    charge:    3.9736    magn:    0.4009    constr:    0.0000
     atom:   13    charge:    3.9710    magn:    0.3968    constr:    0.0000
     atom:   14    charge:    3.9697    magn:    0.4013    constr:    0.0000
     atom:   15    charge:    3.9701    magn:    0.3917    constr:    0.0000
     atom:   16    charge:    3.9619    magn:    0.2035    constr:    0.0000
     atom:   17    charge:    3.9708    magn:    0.3981    constr:    0.0000
     atom:   18    charge:    3.9698    magn:    0.4111    constr:    0.0000
     atom:   19    charge:    3.9701    magn:    0.3917    constr:    0.0000
     atom:   20    charge:    3.9619    magn:    0.2035    constr:    0.0000
     atom:   21    charge:    3.9710    magn:    0.3968    constr:    0.0000
     atom:   22    charge:    3.9697    magn:    0.4013    constr:    0.0000
     atom:   23    charge:    3.9705    magn:    0.4004    constr:    0.0000
     atom:   24    charge:    3.9717    magn:    0.3927    constr:    0.0000
     atom:   25    charge:    3.9712    magn:    0.4008    constr:    0.0000
     atom:   26    charge:    3.9702    magn:    0.4035    constr:    0.0000
     atom:   27    charge:    3.9705    magn:    0.3862    constr:    0.0000
     atom:   28    charge:    3.9717    magn:    0.3927    constr:    0.0000
     atom:   29    charge:    3.9708    magn:    0.3981    constr:    0.0000
     atom:   30    charge:    3.9697    magn:    0.4013    constr:    0.0000
     atom:   31    charge:    3.9701    magn:    0.3917    constr:    0.0000
     atom:   32    charge:    3.9736    magn:    0.4009    constr:    0.0000
     atom:   33    charge:    3.9708    magn:    0.3981    constr:    0.0000
     atom:   34    charge:    3.9697    magn:    0.4013    constr:    0.0000
     atom:   35    charge:    3.9705    magn:    0.3862    constr:    0.0000
     atom:   36    charge:    3.9717    magn:    0.3927    constr:    0.0000
     atom:   37    charge:    0.5862    magn:    0.0731    constr:    0.0000

     total cpu time spent up to now is     1268.9 secs

     total energy              =   -3634.73381192 Ry
     Harris-Foulkes estimate   =   -3634.73329588 Ry
     estimated scf accuracy    <       0.02732378 Ry

     total magnetization       =    20.78 Bohr mag/cell
     absolute magnetization    =    25.31 Bohr mag/cell

     iteration # 17     ecut=    44.10 Ry     beta=0.10
     Davidson diagonalization with overlap
     ethr =  6.71E-06,  avg # of iterations =  3.1

     negative rho (up, down):  3.193E-04 2.904E-04
 
     Adding external electric field

     Computed dipole along edir(3) : 
        Dipole               -0.1783 Ry au,         -0.4531 Debye
        Dipole field         -0.0003 Ry au
 
        Potential amp.        0.0248 Ry
        Total length         38.9923 bohr
 
 
     Adding external electric field

     Computed dipole along edir(3) : 
        Dipole               -0.1783 Ry au,         -0.4531 Debye
        Dipole field         -0.0003 Ry au
 
        Potential amp.        0.0248 Ry
        Total length         38.9923 bohr
 
 
     Magnetic moment per site:
     atom:    1    charge:    3.9714    magn:    0.3929    constr:    0.0000
     atom:    2    charge:    3.9705    magn:    0.3931    constr:    0.0000
     atom:    3    charge:    3.9700    magn:    0.3785    constr:    0.0000
     atom:    4    charge:    3.9622    magn:    0.1920    constr:    0.0000
     atom:    5    charge:    3.9714    magn:    0.3929    constr:    0.0000
     atom:    6    charge:    3.9705    magn:    0.3931    constr:    0.0000
     atom:    7    charge:    3.9702    magn:    0.3927    constr:    0.0000
     atom:    8    charge:    3.9736    magn:    0.3927    constr:    0.0000
     atom:    9    charge:    3.9712    magn:    0.3888    constr:    0.0000
     atom:   10    charge:    3.9707    magn:    0.3961    constr:    0.0000
     atom:   11    charge:    3.9702    magn:    0.3927    constr:    0.0000
     atom:   12    charge:    3.9736    magn:    0.3927    constr:    0.0000
     atom:   13    charge:    3.9712    magn:    0.3888    constr:    0.0000
     atom:   14    charge:    3.9705    magn:    0.3931    constr:    0.0000
     atom:   15    charge:    3.9699    magn:    0.3837    constr:    0.0000
     atom:   16    charge:    3.9622    magn:    0.1920    constr:    0.0000
     atom:   17    charge:    3.9713    magn:    0.3900    constr:    0.0000
     atom:   18    charge:    3.9706    magn:    0.4032    constr:    0.0000
     atom:   19    charge:    3.9699    magn:    0.3837    constr:    0.0000
     atom:   20    charge:    3.9622    magn:    0.1920    constr:    0.0000
     atom:   21    charge:    3.9712    magn:    0.3888    constr:    0.0000
     atom:   22    charge:    3.9705    magn:    0.3931    constr:    0.0000
     atom:   23    charge:    3.9702    magn:    0.3927    constr:    0.0000
     atom:   24    charge:    3.9713    magn:    0.3847    constr:    0.0000
     atom:   25    charge:    3.9714    magn:    0.3929    constr:    0.0000
     atom:   26    charge:    3.9710    magn:    0.3956    constr:    0.0000
     atom:   27    charge:    3.9700    magn:    0.3785    constr:    0.0000
     atom:   28    charge:    3.9713    magn:    0.3847    constr:    0.0000
     atom:   29    charge:    3.9713    magn:    0.3900    constr:    0.0000
     atom:   30    charge:    3.9705    magn:    0.3931    constr:    0.0000
     atom:   31    charge:    3.9699    magn:    0.3837    constr:    0.0000
     atom:   32    charge:    3.9736    magn:    0.3927    constr:    0.0000
     atom:   33    charge:    3.9713    magn:    0.3900    constr:    0.0000
     atom:   34    charge:    3.9705    magn:    0.3931    constr:    0.0000
     atom:   35    charge:    3.9700    magn:    0.3785    constr:    0.0000
     atom:   36    charge:    3.9713    magn:    0.3847    constr:    0.0000
     atom:   37    charge:    0.5854    magn:    0.0681    constr:    0.0000

     total cpu time spent up to now is     1344.4 secs

     total energy              =   -3634.73391334 Ry
     Harris-Foulkes estimate   =   -3634.73474116 Ry
     estimated scf accuracy    <       0.01539020 Ry

     total magnetization       =    20.91 Bohr mag/cell
     absolute magnetization    =    25.28 Bohr mag/cell

     iteration # 18     ecut=    44.10 Ry     beta=0.10
     Davidson diagonalization with overlap
     ethr =  4.23E-06,  avg # of iterations =  3.5

     negative rho (up, down):  3.116E-04 2.769E-04
 
     Adding external electric field

     Computed dipole along edir(3) : 
        Dipole               -0.1703 Ry au,         -0.4329 Debye
        Dipole field         -0.0003 Ry au
 
        Potential amp.        0.0237 Ry
        Total length         38.9923 bohr
 
 
     Adding external electric field

     Computed dipole along edir(3) : 
        Dipole               -0.1703 Ry au,         -0.4329 Debye
        Dipole field         -0.0003 Ry au
 
        Potential amp.        0.0237 Ry
        Total length         38.9923 bohr
 
 
     Magnetic moment per site:
     atom:    1    charge:    3.9716    magn:    0.3883    constr:    0.0000
     atom:    2    charge:    3.9698    magn:    0.3883    constr:    0.0000
     atom:    3    charge:    3.9699    magn:    0.3727    constr:    0.0000
     atom:    4    charge:    3.9620    magn:    0.1797    constr:    0.0000
     atom:    5    charge:    3.9716    magn:    0.3883    constr:    0.0000
     atom:    6    charge:    3.9698    magn:    0.3883    constr:    0.0000
     atom:    7    charge:    3.9699    magn:    0.3874    constr:    0.0000
     atom:    8    charge:    3.9740    magn:    0.3861    constr:    0.0000
     atom:    9    charge:    3.9715    magn:    0.3836    constr:    0.0000
     atom:   10    charge:    3.9699    magn:    0.3914    constr:    0.0000
     atom:   11    charge:    3.9699    magn:    0.3874    constr:    0.0000
     atom:   12    charge:    3.9740    magn:    0.3861    constr:    0.0000
     atom:   13    charge:    3.9715    magn:    0.3836    constr:    0.0000
     atom:   14    charge:    3.9698    magn:    0.3883    constr:    0.0000
     atom:   15    charge:    3.9697    magn:    0.3774    constr:    0.0000
     atom:   16    charge:    3.9620    magn:    0.1797    constr:    0.0000
     atom:   17    charge:    3.9713    magn:    0.3853    constr:    0.0000
     atom:   18    charge:    3.9698    magn:    0.3989    constr:    0.0000
[...]
    10.5055  10.7516  10.7523  10.8057  10.9721  11.0689  11.0746  11.2023
    11.2486  11.3410  11.5432  11.6247  11.6754  11.8098  11.8384  11.9767
    12.0339  12.0657  12.1500  12.2431  12.2681  12.6226  12.6371  12.7079
    12.8294  13.0012  13.1384  13.1551  13.1706  13.1731  13.2109  13.3839
    13.4777  13.4991

 ------ SPIN DOWN ----------


          k = 0.0000 0.0000 0.0000 ( 34645 PWs)   bands (ev):

    -8.9409  -6.2220  -4.8255  -3.2154  -3.2153  -3.1821  -3.1281  -3.1256
    -3.1255  -3.0268  -2.6188  -2.6188  -2.3305  -2.3028  -2.3028  -2.2523
    -2.1665  -1.8820  -1.8819  -1.6682  -1.4705  -1.4704  -1.4419  -1.1915
    -1.1914  -1.1589  -0.9249  -0.9220  -0.9219  -0.8647  -0.8645  -0.8645
    -0.8084  -0.8083  -0.7720  -0.7720  -0.7589  -0.7481  -0.7309  -0.7259
    -0.7259  -0.7228  -0.6809  -0.6809  -0.6683  -0.6420  -0.6419  -0.4383
    -0.4382  -0.3993  -0.3976  -0.3975  -0.3935  -0.3934  -0.3658  -0.2569
    -0.2569  -0.1654  -0.0292  -0.0292   0.0030   0.0030   0.0084   0.0177
     0.0991   0.0991   0.2069   0.2077   0.2615   0.2615   0.3101   0.3153
     0.3153   0.3359   0.3871   0.4169   0.5082   0.5082   0.5153   0.5514
     0.5729   0.5729   0.6005   0.6005   0.6072   0.6073   0.6161   0.6548
     0.6548   0.6566   0.6715   0.6715   0.7121   0.7127   0.7220   0.7220
     0.7539   0.7539   0.7637   0.7898   0.7899   0.7964   0.7987   0.8246
     0.8247   0.8289   0.8569   0.8570   0.8634   0.8911   0.8912   0.9109
     0.9109   1.0236   1.0556   1.0556   1.0929   1.0992   1.0992   1.1315
     1.1824   1.1825   1.2320   1.2807   1.2807   1.2945   1.3735   1.3735
     1.4142   1.4907   1.5086   1.5087   1.5613   1.5613   1.5821   1.5821
     1.6284   1.6285   1.6754   1.6876   1.6877   1.7162   1.7320   1.7320
     1.7604   1.7611   1.7611   1.7778   1.8572   1.8669   1.8669   1.9127
     1.9134   1.9134   1.9406   1.9407   1.9440   1.9440   1.9680   1.9703
     1.9773   1.9808   1.9808   2.0035   2.0035   2.0148   2.0322   2.0322
     2.0591   2.0591   2.0764   2.0792   2.0804   2.0804   2.0957   2.0957
     2.1242   2.1386   2.1386   2.1471   2.1471   2.1554   2.1738   2.1916
     2.1916   2.2232   2.2232   2.2330   2.2359   2.2816   2.2816   2.3435
     2.3487   2.3487   2.3711   2.3711   2.3802   2.7914   2.8298   2.8298
     3.1411   3.1411   3.1707   3.6018   4.1625   4.1625   5.1342   5.3416
     5.3416   5.3670   6.0268   6.0268   6.6335   6.7547   7.0309   7.0713
     7.0713   7.2737   7.3084   7.3085   7.6722   7.7001   7.7002   7.7488
     7.7713   7.7713   8.0380   8.0420   8.1878   8.6316   8.6316   8.9822
     9.0904   9.1553   9.1553   9.7710   9.7710   9.7912   9.8169   9.8169
     9.8417   9.9164   9.9164  10.0756  10.2148  10.2149  10.2290  10.2444
    10.2444  10.3942  10.7851  10.9746  11.0091  11.0091  11.0165  11.0165
    11.0491  11.3378  11.4089  11.4090  11.5412  11.6319  11.6319  11.6641
    11.6641  11.6843  11.7731  11.8261  11.8261  11.8410  11.8410  12.0542
    12.3337  12.3337  12.5000  12.6494  12.6494  12.8213  12.9320  12.9320
    13.1239  13.3451

          k = 0.0000 0.0510 0.0000 ( 34862 PWs)   bands (ev):

    -8.9288  -5.8307  -4.7213  -4.4677  -3.7075  -3.6703  -3.4949  -2.8463
    -2.8201  -2.5798  -2.3215  -2.2867  -2.1672  -2.0548  -1.9802  -1.8982
    -1.8664  -1.8163  -1.6930  -1.6761  -1.5755  -1.3950  -1.3932  -1.2914
    -1.2834  -1.2616  -1.2348  -1.2059  -1.1484  -1.1167  -1.1092  -1.0544
    -0.9183  -0.9157  -0.8874  -0.8815  -0.7912  -0.7694  -0.7603  -0.7402
    -0.7132  -0.6779  -0.6377  -0.6096  -0.5763  -0.5123  -0.4971  -0.4509
    -0.4061  -0.3815  -0.3454  -0.3423  -0.2748  -0.2682  -0.2514  -0.2336
    -0.1705  -0.1309  -0.1003  -0.0892  -0.0763  -0.0294   0.0216   0.0420
     0.1259   0.1358   0.1537   0.1607   0.1914   0.2071   0.2251   0.2740
     0.2858   0.3144   0.3327   0.3418   0.3820   0.4039   0.4180   0.4233
     0.4424   0.5069   0.5072   0.5230   0.5388   0.5475   0.5799   0.5868
     0.6039   0.6230   0.6337   0.6576   0.6599   0.6821   0.6867   0.7060
     0.7243   0.7275   0.7476   0.7724   0.7801   0.8125   0.8227   0.8300
     0.8435   0.8523   0.8754   0.8779   0.9098   0.9180   0.9371   0.9425
     0.9739   0.9892   1.0277   1.0324   1.0744   1.0929   1.0968   1.1501
     1.1715   1.1933   1.2230   1.2554   1.2642   1.2859   1.3052   1.3299
     1.3440   1.3588   1.3642   1.3652   1.4346   1.4436   1.4708   1.5099
     1.5349   1.5735   1.5888   1.5966   1.6081   1.6112   1.6763   1.6911
     1.7174   1.7316   1.7389   1.7536   1.7703   1.7870   1.7903   1.8274
     1.8331   1.8769   1.8860   1.9147   1.9189   1.9405   1.9416   1.9717
     1.9756   2.0074   2.0135   2.0425   2.0572   2.0816   2.1115   2.1145
     2.1366   2.1512   2.1603   2.1706   2.1973   2.2187   2.2288   2.2288
     2.2541   2.2569   2.2732   2.2989   2.3001   2.3071   2.3323   2.3534
     2.3727   2.4039   2.4053   2.4141   2.4482   2.4510   2.5184   2.5286
     2.7551   2.8154   2.8893   2.9064   3.0387   3.1252   3.1702   3.3025
     3.5132   3.7912   3.8951   4.1479   4.2474   4.4063   4.4198   4.6325
     4.7523   5.0124   5.1448   5.3608   5.5674   5.6667   5.9207   6.1606
     6.3813   6.6256   6.8587   7.0157   7.0578   7.2321   7.3765   7.6442
     7.7003   8.1748   8.2204   8.3983   8.5167   8.6881   9.0003   9.0065
     9.0706   9.1706   9.2313   9.2570   9.3589   9.4081   9.4755   9.5622
     9.5648   9.6288   9.7375   9.8996  10.1503  10.2389  10.4543  10.4843
    10.6131  10.7846  10.7992  10.8792  11.0656  11.1238  11.1559  11.2613
    11.3199  11.4256  11.5816  11.6624  11.7219  11.8185  11.8588  12.0480
    12.1063  12.1299  12.2445  12.3063  12.3554  12.6617  12.7274  12.7445
    12.8545  13.0306  13.1631  13.1826  13.2205  13.2283  13.2724  13.4540
    13.5209  13.5404

          k = 0.0442 0.0255 0.0000 ( 34862 PWs)   bands (ev):

    -8.9288  -5.8307  -4.7214  -4.4676  -3.7075  -3.6703  -3.4949  -2.8463
    -2.8201  -2.5799  -2.3215  -2.2867  -2.1672  -2.0548  -1.9802  -1.8982
    -1.8665  -1.8164  -1.6930  -1.6761  -1.5755  -1.3950  -1.3933  -1.2914
    -1.2834  -1.2615  -1.2348  -1.2059  -1.1484  -1.1167  -1.1092  -1.0544
    -0.9182  -0.9157  -0.8874  -0.8815  -0.7912  -0.7694  -0.7604  -0.7403
    -0.7132  -0.6779  -0.6377  -0.6096  -0.5763  -0.5123  -0.4971  -0.4509
    -0.4062  -0.3816  -0.3454  -0.3423  -0.2748  -0.2683  -0.2513  -0.2336
    -0.1705  -0.1309  -0.1003  -0.0892  -0.0763  -0.0294   0.0216   0.0420
     0.1259   0.1358   0.1537   0.1608   0.1914   0.2071   0.2251   0.2740
     0.2858   0.3144   0.3327   0.3418   0.3819   0.4039   0.4180   0.4232
     0.4424   0.5069   0.5072   0.5230   0.5388   0.5476   0.5799   0.5868
     0.6039   0.6230   0.6337   0.6576   0.6599   0.6821   0.6867   0.7060
     0.7243   0.7275   0.7476   0.7725   0.7801   0.8125   0.8227   0.8300
     0.8435   0.8523   0.8754   0.8779   0.9098   0.9180   0.9371   0.9424
     0.9738   0.9891   1.0277   1.0324   1.0744   1.0928   1.0968   1.1501
     1.1715   1.1933   1.2230   1.2554   1.2642   1.2859   1.3052   1.3299
     1.3440   1.3589   1.3642   1.3652   1.4345   1.4436   1.4707   1.5099
     1.5349   1.5735   1.5888   1.5966   1.6081   1.6112   1.6763   1.6911
     1.7174   1.7316   1.7389   1.7536   1.7703   1.7870   1.7903   1.8274
     1.8331   1.8769   1.8860   1.9147   1.9189   1.9405   1.9416   1.9717
     1.9756   2.0075   2.0135   2.0425   2.0572   2.0816   2.1115   2.1145
     2.1366   2.1512   2.1603   2.1706   2.1973   2.2186   2.2288   2.2288
     2.2541   2.2569   2.2732   2.2989   2.3001   2.3071   2.3323   2.3535
     2.3727   2.4039   2.4053   2.4140   2.4482   2.4510   2.5184   2.5286
     2.7551   2.8154   2.8893   2.9064   3.0387   3.1252   3.1702   3.3025
     3.5132   3.7912   3.8950   4.1479   4.2474   4.4062   4.4198   4.6325
     4.7523   5.0124   5.1448   5.3609   5.5673   5.6667   5.9207   6.1606
     6.3813   6.6256   6.8587   7.0157   7.0578   7.2321   7.3765   7.6442
     7.7003   8.1748   8.2204   8.3983   8.5167   8.6881   9.0004   9.0065
     9.0706   9.1706   9.2313   9.2569   9.3589   9.4081   9.4755   9.5622
     9.5648   9.6288   9.7375   9.8996  10.1503  10.2389  10.4543  10.4843
    10.6131  10.7846  10.7992  10.8792  11.0656  11.1237  11.1559  11.2613
    11.3199  11.4256  11.5816  11.6624  11.7219  11.8184  11.8588  12.0480
    12.1062  12.1299  12.2445  12.3063  12.3555  12.6617  12.7275  12.7445
    12.8545  13.0306  13.1631  13.1826  13.2205  13.2283  13.2724  13.4539
    13.5209  13.5404

          k = 0.0442 0.0765 0.0000 ( 34881 PWs)   bands (ev):

    -8.9228  -5.1057  -5.1032  -4.9957  -3.9148  -3.8869  -3.5939  -2.5705
    -2.4863  -2.2766  -2.2659  -2.2571  -2.0378  -2.0133  -1.9266  -1.7483
    -1.6504  -1.6465  -1.6445  -1.6187  -1.6134  -1.6128  -1.5725  -1.4939
    -1.4817  -1.3607  -1.3516  -1.2829  -1.1570  -1.1460  -1.1397  -1.0450
    -1.0434  -1.0388  -1.0043  -0.9882  -0.9858  -0.8912  -0.8354  -0.6817
    -0.5715  -0.5706  -0.5597  -0.5503  -0.5464  -0.5416  -0.5211  -0.5197
    -0.3929  -0.3266  -0.2254  -0.2188  -0.1842  -0.1713  -0.1573  -0.1471
    -0.1392  -0.1031  -0.0602  -0.0565  -0.0115   0.0147   0.0224   0.0386
     0.0736   0.0826   0.0952   0.1000   0.1595   0.1662   0.2066   0.2283
     0.2843   0.2880   0.3080   0.3316   0.3628   0.3757   0.3968   0.4061
     0.4123   0.4165   0.4335   0.4360   0.4576   0.4668   0.4688   0.5029
     0.5032   0.5062   0.5149   0.5403   0.5480   0.6573   0.7016   0.7046
     0.7383   0.7626   0.7760   0.7924   0.7948   0.8102   0.8146   0.8175
     0.8571   0.8622   0.8632   0.9296   0.9329   0.9357   0.9553   1.0212
     1.0225   1.0495   1.0680   1.0990   1.1348   1.1658   1.1747   1.1760
     1.1858   1.2195   1.2461   1.2535   1.2550   1.2631   1.2706   1.2878
     1.3127   1.3353   1.3404   1.4018   1.4125   1.4211   1.4393   1.4726
     1.4958   1.5118   1.5384   1.5459   1.5784   1.6043   1.6074   1.6325
     1.6349   1.6803   1.6820   1.6861   1.7107   1.7136   1.7188   1.7304
     1.7774   1.8018   1.8238   1.8529   1.8618   1.9014   1.9035   2.0095
     2.0227   2.0501   2.0686   2.0762   2.0812   2.1265   2.1531   2.1631
     2.1932   2.1933   2.2157   2.2472   2.2473   2.2640   2.2738   2.2814
     2.2824   2.3025   2.3251   2.3256   2.3291   2.3599   2.3684   2.4135
     2.4236   2.4312   2.4355   2.4427   2.4515   2.6371   2.7678   2.9945
     3.0277   3.0757   3.1349   3.1972   3.3246   3.4266   3.6780   3.7557
     3.8896   4.0280   4.0360   4.0890   4.1539   4.4917   4.5634   4.6904
     4.8319   4.8980   5.0920   5.1053   5.2502   5.4119   5.4420   5.4448
     5.5993   5.7304   5.8555   6.3758   6.7866   7.0554   7.7536   7.8157
     7.8166   7.8836   7.9786   7.9809   8.2293   8.4338   8.4757   8.7467
     8.9223   8.9240   9.0384   9.2584   9.2648   9.3249   9.3383   9.3561
     9.7666   9.8780   9.8828  10.1098  10.3803  10.6510  10.8317  10.8647
    10.9465  11.0555  11.3359  11.3398  11.3494  11.5051  11.6046  11.6476
    11.8880  11.9045  11.9563  11.9615  11.9838  11.9977  12.1038  12.1096
    12.3060  12.3124  12.3146  12.5873  12.6255  12.6466  12.7615  12.7998
    12.8050  12.8115  12.8577  12.8623  13.0280  13.0877  13.1599  13.2925
    13.3227  13.4827

          k = 0.0442-0.0255 0.0000 ( 34862 PWs)   bands (ev):

    -8.9288  -5.8307  -4.7213  -4.4677  -3.7075  -3.6703  -3.4949  -2.8463
    -2.8201  -2.5798  -2.3215  -2.2867  -2.1672  -2.0548  -1.9802  -1.8982
    -1.8664  -1.8163  -1.6930  -1.6761  -1.5755  -1.3950  -1.3932  -1.2914
    -1.2834  -1.2616  -1.2348  -1.2059  -1.1484  -1.1167  -1.1092  -1.0544
    -0.9183  -0.9157  -0.8874  -0.8815  -0.7912  -0.7694  -0.7603  -0.7402
    -0.7132  -0.6779  -0.6377  -0.6096  -0.5763  -0.5123  -0.4971  -0.4509
    -0.4061  -0.3815  -0.3454  -0.3423  -0.2747  -0.2682  -0.2514  -0.2336
    -0.1705  -0.1309  -0.1003  -0.0892  -0.0763  -0.0294   0.0216   0.0420
     0.1259   0.1358   0.1537   0.1607   0.1914   0.2071   0.2251   0.2740
     0.2858   0.3144   0.3327   0.3418   0.3820   0.4039   0.4180   0.4233
     0.4424   0.5069   0.5072   0.5230   0.5388   0.5475   0.5799   0.5868
     0.6039   0.6230   0.6337   0.6576   0.6599   0.6821   0.6867   0.7060
     0.7243   0.7275   0.7476   0.7724   0.7801   0.8125   0.8227   0.8300
     0.8435   0.8523   0.8754   0.8779   0.9098   0.9180   0.9371   0.9425
     0.9739   0.9892   1.0277   1.0324   1.0744   1.0929   1.0967   1.1501
     1.1715   1.1933   1.2230   1.2554   1.2642   1.2859   1.3052   1.3299
     1.3440   1.3588   1.3642   1.3652   1.4346   1.4436   1.4708   1.5099
     1.5349   1.5735   1.5888   1.5966   1.6081   1.6112   1.6763   1.6911
     1.7174   1.7315   1.7389   1.7536   1.7703   1.7870   1.7903   1.8274
     1.8331   1.8769   1.8860   1.9147   1.9189   1.9405   1.9416   1.9717
     1.9756   2.0074   2.0135   2.0425   2.0572   2.0816   2.1115   2.1145
     2.1366   2.1512   2.1603   2.1706   2.1973   2.2187   2.2288   2.2288
     2.2541   2.2569   2.2732   2.2989   2.3001   2.3071   2.3323   2.3534
     2.3727   2.4039   2.4053   2.4141   2.4482   2.4510   2.5184   2.5286
     2.7551   2.8154   2.8893   2.9064   3.0387   3.1252   3.1702   3.3025
     3.5132   3.7912   3.8951   4.1479   4.2474   4.4063   4.4198   4.6325
     4.7523   5.0124   5.1448   5.3608   5.5674   5.6667   5.9207   6.1606
     6.3813   6.6256   6.8587   7.0157   7.0578   7.2321   7.3765   7.6442
     7.7003   8.1748   8.2204   8.3983   8.5167   8.6881   9.0003   9.0065
     9.0706   9.1706   9.2313   9.2570   9.3589   9.4081   9.4756   9.5622
     9.5648   9.6288   9.7375   9.8996  10.1503  10.2389  10.4543  10.4843
    10.6131  10.7846  10.7992  10.8792  11.0655  11.1238  11.1559  11.2613
    11.3199  11.4256  11.5816  11.6624  11.7219  11.8184  11.8588  12.0480
    12.1063  12.1299  12.2445  12.3063  12.3555  12.6617  12.7274  12.7445
    12.8545  13.0306  13.1631  13.1826  13.2205  13.2283  13.2724  13.4540
    13.5209  13.5404

     the Fermi energy is     2.1747 ev

!    total energy              =   -3634.76414022 Ry
     Harris-Foulkes estimate   =   -3634.76413774 Ry
     estimated scf accuracy    <       0.00000048 Ry

     The total energy is the sum of the following terms:

     one-electron contribution =  -24253.55959896 Ry
     hartree contribution      =   12527.06191899 Ry
     xc contribution           =   -1509.43879977 Ry
     ewald contribution        =    9601.33440250 Ry
     electric field correction =       0.00003552 Ry
     smearing contrib. (-TS)   =      -0.16209851 Ry

     total magnetization       =    20.09 Bohr mag/cell
     absolute magnetization    =    23.60 Bohr mag/cell

     convergence has been achieved in  18 iterations

     Forces acting on atoms (Ry/au):


     negative rho (up, down):  2.685E-04 2.109E-04
     atom    1 type  1   force =     0.00038092   -0.00020375    0.00568068
     atom    2 type  1   force =    -0.00065866   -0.00008360   -0.00363718
     atom    3 type  1   force =    -0.00029537   -0.00016028   -0.00061536
     atom    4 type  1   force =    -0.00047830   -0.00027338   -0.00022311
     atom    5 type  1   force =     0.00000958    0.00043509    0.00568315
     atom    6 type  1   force =    -0.00040745   -0.00052935   -0.00363688
     atom    7 type  1   force =     0.00005997    0.00047116   -0.00150732
     atom    8 type  1   force =    -0.00020557    0.00015451   -0.00141659
     atom    9 type  1   force =     0.00005549    0.00002566    0.00476801
     atom   10 type  1   force =     0.00003806    0.00001927   -0.00352222
     atom   11 type  1   force =     0.00045063   -0.00018688   -0.00151050
     atom   12 type  1   force =     0.00003630   -0.00025426   -0.00141759
     atom   13 type  1   force =     0.00002704   -0.00003136    0.00478336
     atom   14 type  1   force =     0.00067916   -0.00011737   -0.00363541
     atom   15 type  1   force =     0.00002070    0.00010431    0.00072653
     atom   16 type  1   force =     0.00053776   -0.00035559   -0.00026833
     atom   17 type  1   force =     0.00042240    0.00024476    0.00479033
     atom   18 type  1   force =    -0.00002054   -0.00001583   -0.00250039
     atom   19 type  1   force =     0.00009273   -0.00004304    0.00072760
     atom   20 type  1   force =    -0.00004154    0.00061820   -0.00025232
     atom   21 type  1   force =    -0.00001827    0.00003542    0.00478372
     atom   22 type  1   force =     0.00023249    0.00064709   -0.00363568
     atom   23 type  1   force =    -0.00036601   -0.00020693   -0.00148320
     atom   24 type  1   force =    -0.00040249   -0.00022713   -0.00096098
     atom   25 type  1   force =    -0.00040712   -0.00022971    0.00569146
     atom   26 type  1   force =    -0.00001823   -0.00000376   -0.00637336
     atom   27 type  1   force =     0.00026955   -0.00024122   -0.00060333
     atom   28 type  1   force =     0.00000502    0.00042189   -0.00091717
     atom   29 type  1   force =    -0.00043132    0.00020855    0.00478541
     atom   30 type  1   force =     0.00042560   -0.00056053   -0.00364068
     atom   31 type  1   force =    -0.00015236   -0.00010158    0.00071608
     atom   32 type  1   force =     0.00024165    0.00013316   -0.00137446
     atom   33 type  1   force =    -0.00003612   -0.00048342    0.00478333
     atom   34 type  1   force =    -0.00026926    0.00064377   -0.00364146
     atom   35 type  1   force =    -0.00008304    0.00036372   -0.00060494
     atom   36 type  1   force =     0.00036664   -0.00020053   -0.00091000
     atom   37 type  2   force =    -0.00006005   -0.00001708    0.00036878

     Total force =     0.019955     Total SCF correction =     0.003253
     SCF correction compared to forces is large: reduce conv_thr to get better values
 !ASE

     Writing output data file calc.save
 
     init_run     :     26.66s CPU     30.69s WALL (       1 calls)
     electrons    :  10196.30s CPU  11759.17s WALL (       5 calls)
     update_pot   :      8.95s CPU      9.50s WALL (       4 calls)
     forces       :    229.06s CPU    238.03s WALL (       5 calls)

     Called by init_run:
     wfcinit      :     17.75s CPU     21.37s WALL (       1 calls)
     potinit      :      0.87s CPU      0.95s WALL (       1 calls)

     Called by electrons:
     c_bands      :   6721.41s CPU   7909.18s WALL (     158 calls)
     sum_band     :   2511.10s CPU   2815.06s WALL (     158 calls)
     v_of_rho     :     54.37s CPU     63.36s WALL (     163 calls)
     newd         :    922.70s CPU    982.56s WALL (     163 calls)
     mix_rho      :     10.75s CPU     13.14s WALL (     158 calls)

     Called by c_bands:
     init_us_2    :     36.38s CPU     38.92s WALL (    3220 calls)
     cegterg      :   6511.38s CPU   7689.56s WALL (    1580 calls)

     Called by *egterg:
     h_psi        :   3386.88s CPU   4311.81s WALL (    4335 calls)
     s_psi        :    540.63s CPU    559.31s WALL (    4335 calls)
     g_psi        :     13.45s CPU     13.74s WALL (    2745 calls)
     cdiaghg      :   1117.65s CPU   1146.72s WALL (    4285 calls)

     Called by h_psi:
     add_vuspsi   :    547.00s CPU    564.94s WALL (    4335 calls)

     General routines
     calbec       :    843.04s CPU    863.48s WALL (    5965 calls)
     fft          :     48.70s CPU     57.86s WALL (    5098 calls)
     ffts         :      0.72s CPU      1.03s WALL (     642 calls)
     fftw         :   1877.22s CPU   2962.16s WALL ( 2353746 calls)
     interpolate  :      5.97s CPU      8.63s WALL (     642 calls)
     davcio       :      0.00s CPU      0.37s WALL (      10 calls)
 
     Parallel routines
     fft_scatter  :   1103.35s CPU   1746.21s WALL ( 2359486 calls)
 
     PWSCF        :     2h54m CPU        3h21m WALL

 
   This run was terminated on:  18:16: 4  10Mar2017            

=------------------------------------------------------------------------------=
   JOB DONE.
=------------------------------------------------------------------------------=
