  python dir          : /home/vossj/suncat/lib/python2.7/site-packages/espresso
  espresso dir        : /home/vossj/suncat/esdld/espresso-dynpy-beef/bin
  pseudo dir          : /home/alatimer/bin/psp/esp_psp_w_gbrvRu/
  ase-espresso py git : ffa2778-git



     Program PWSCF v.5.1rc2 (svn rev. ) starts on 23Mar2018 at  9:16:28 

     This program is part of the open-source Quantum ESPRESSO suite
     for quantum simulation of materials; please cite
         "P. Giannozzi et al., J. Phys.:Condens. Matter 21 395502 (2009);
          URL http://www.quantum-espresso.org", 
     in publications or presentations arising from this work. More details at
     http://www.quantum-espresso.org/quote

     Parallel version (MPI), running on    16 processors
     R & G space division:  proc/nbgrp/npool/nimage =      16
     Reading input from pw.inp
     Message from routine read_cards :
     DEPRECATED: no units specified in CELL_PARAMETERS card

     Current dimensions of program PWSCF are:
     Max number of different atomic species (ntypx) = 10
     Max number of k-points (npk) =  40000
     Max angular momentum in pseudopotentials (lmaxx) =  3
     Presently no symmetry can be used with electric field


     IMPORTANT: XC functional enforced from input :
     Exchange-correlation      = RPBE ( 1  4 28  4 0)
     Any further DFT definition will be discarded
     Please, verify this is what you really want

               file Ni.UPF: wavefunction(s)  3D renormalized

     Subspace diagonalization in iterative solution of the eigenvalue problem:
     a serial algorithm will be used

 
     Parallelization info
     --------------------
     sticks:   dense  smooth     PW     G-vecs:    dense   smooth      PW
     Min         363     145     39               122687    31011    4299
     Max         364     146     40               122712    31054    4310
     Sum        5823    2325    627              1963319   496527   68879
 
     Generating pointlists ...
     new r_m :   0.4125 (alat units)  0.7795 (a.u.) for type    1
     new r_m :   0.4125 (alat units)  0.7795 (a.u.) for type    2


     bravais-lattice index     =            0
     lattice parameter (alat)  =       1.8897  a.u.
     unit-cell volume          =   12553.3819 (a.u.)^3
     number of atoms/cell      =           37
     number of atomic types    =            2
     number of electrons       =       364.00
     number of Kohn-Sham states=          282
     kinetic-energy cutoff     =      44.0992  Ry
     charge density cutoff     =     440.9919  Ry
     convergence threshold     =      7.3E-07
     mixing beta               =       0.1000
     number of iterations used =           10  plain     mixing
     Exchange-correlation      = RPBE ( 1  4 28  4 0)
     nstep                     =           50


     celldm(1)=   1.889726  celldm(2)=   0.000000  celldm(3)=   0.000000
     celldm(4)=   0.000000  celldm(5)=   0.000000  celldm(6)=   0.000000

     crystal axes: (cart. coord. in units of alat)
               a(1) = (   6.162925   0.000000   0.000000 )  
               a(2) = (   0.000000   7.548011   0.000000 )  
               a(3) = (   0.000000   0.000000  39.989385 )  

     reciprocal axes: (cart. coord. in units 2 pi/alat)
               b(1) = (  0.162261  0.000000  0.000000 )  
               b(2) = (  0.000000  0.132485  0.000000 )  
               b(3) = (  0.000000  0.000000  0.025007 )  


     PseudoPot. # 1 for Ni read from file:
     /home/alatimer/bin/psp/esp_psp_w_gbrvRu/Ni.UPF
     MD5 check sum: 8b2449ee0060d9c33484ccd47bb60870
     Pseudo is Ultrasoft + core correction, Zval = 10.0
     Generated using "atomic" code by A. Dal Corso  v.5.0.2 svn rev. 9415
     Using radial grid of 1195 points,  6 beta functions with: 
                l(1) =   0
                l(2) =   0
                l(3) =   1
                l(4) =   1
                l(5) =   2
                l(6) =   2
     Q(r) pseudized with 0 coefficients 


     PseudoPot. # 2 for  C read from file:
     /home/alatimer/bin/psp/esp_psp_w_gbrvRu/C.UPF
     MD5 check sum: ab446d787031eba755f1d5ee46644bb0
     Pseudo is Ultrasoft + core correction, Zval =  4.0
     Generated using "atomic" code by A. Dal Corso  v.5.0.2 svn rev. 9415
     Using radial grid of 1073 points,  4 beta functions with: 
                l(1) =   0
                l(2) =   0
                l(3) =   1
                l(4) =   1
     Q(r) pseudized with 0 coefficients 


     atomic species   valence    mass     pseudopotential
        Ni1           10.00    58.69340     Ni( 1.00)
        C1             4.00    12.01100      C( 1.00)

     Starting magnetic structure 
     atomic species   magnetization
        Ni1          0.300
        C1           0.750

     No symmetry found



   Cartesian axes

     site n.     atom                  positions (alat units)
         1           Ni1 tau(   1) = (   0.0000000   1.2580018  23.9893847  )
         2           Ni1 tau(   2) = (   0.0000000   3.7740055  23.9893847  )
         3           Ni1 tau(   3) = (   0.0000000   6.2900092  23.9893847  )
         4           Ni1 tau(   4) = (   4.1086168   0.0000000  23.2630770  )
         5           Ni1 tau(   5) = (   4.1086168   2.5160037  23.2630770  )
         6           Ni1 tau(   6) = (   4.1086168   5.0320073  23.2630770  )
         7           Ni1 tau(   7) = (   2.0543084   1.2580018  22.5367693  )
         8           Ni1 tau(   8) = (   2.0543084   3.7740055  22.5367693  )
         9           Ni1 tau(   9) = (   2.0543084   6.2900092  22.5367693  )
        10           Ni1 tau(  10) = (   0.0000000   0.0000000  21.8104616  )
        11           Ni1 tau(  11) = (   0.0000000   2.5160037  21.8104616  )
        12           Ni1 tau(  12) = (   0.0000000   5.0320073  21.8104616  )
        13           Ni1 tau(  13) = (   4.1086168   1.2580018  21.0841539  )
        14           Ni1 tau(  14) = (   4.1086168   3.7740055  21.0841539  )
        15           Ni1 tau(  15) = (   4.1086168   6.2900092  21.0841539  )
        16           Ni1 tau(  16) = (   2.0543084   0.0000000  20.3578462  )
        17           Ni1 tau(  17) = (   2.0543084   2.5160037  20.3578462  )
        18           Ni1 tau(  18) = (   2.0543084   5.0320073  20.3578462  )
        19           Ni1 tau(  19) = (   0.0000000   1.2580018  19.6315385  )
        20           Ni1 tau(  20) = (   0.0000000   3.7740055  19.6315385  )
        21           Ni1 tau(  21) = (   0.0000000   6.2900092  19.6315385  )
        22           Ni1 tau(  22) = (   4.1086168   0.0000000  18.9052308  )
        23           Ni1 tau(  23) = (   4.1086168   2.5160037  18.9052308  )
        24           Ni1 tau(  24) = (   4.1086168   5.0320073  18.9052308  )
        25           Ni1 tau(  25) = (   2.0543084   1.2580018  18.1789231  )
        26           Ni1 tau(  26) = (   2.0543084   3.7740055  18.1789231  )
        27           Ni1 tau(  27) = (   2.0543084   6.2900092  18.1789231  )
        28           Ni1 tau(  28) = (   0.0000000   0.0000000  17.4526154  )
        29           Ni1 tau(  29) = (   0.0000000   2.5160037  17.4526154  )
        30           Ni1 tau(  30) = (   0.0000000   5.0320073  17.4526154  )
        31           Ni1 tau(  31) = (   4.1086168   1.2580018  16.7263077  )
        32           Ni1 tau(  32) = (   4.1086168   3.7740055  16.7263077  )
        33           Ni1 tau(  33) = (   4.1086168   6.2900092  16.7263077  )
        34           Ni1 tau(  34) = (   2.0543084   0.0000000  16.0000000  )
        35           Ni1 tau(  35) = (   2.0543084   2.5160037  16.0000000  )
        36           Ni1 tau(  36) = (   2.0543084   5.0320073  16.0000000  )
        37           C1  tau(  37) = (   0.0000000   2.5160037  25.0893847  )

     number of k points=    10  Fermi-Dirac smearing, width (Ry)=  0.0073
                       cart. coord. in units 2pi/alat
        k(    1) = (   0.0000000   0.0000000   0.0000000), wk =   0.1111111
        k(    2) = (   0.0000000   0.0441617   0.0000000), wk =   0.2222222
        k(    3) = (   0.0540869   0.0000000   0.0000000), wk =   0.2222222
        k(    4) = (   0.0540869   0.0441617   0.0000000), wk =   0.2222222
        k(    5) = (   0.0540869  -0.0441617   0.0000000), wk =   0.2222222
        k(    6) = (   0.0000000   0.0000000   0.0000000), wk =   0.1111111
        k(    7) = (   0.0000000   0.0441617   0.0000000), wk =   0.2222222
        k(    8) = (   0.0540869   0.0000000   0.0000000), wk =   0.2222222
        k(    9) = (   0.0540869   0.0441617   0.0000000), wk =   0.2222222
        k(   10) = (   0.0540869  -0.0441617   0.0000000), wk =   0.2222222

     Dense  grid:  1963319 G-vectors     FFT dimensions: (  80,  96, 512)

     Smooth grid:   496527 G-vectors     FFT dimensions: (  50,  64, 320)

     Largest allocated arrays     est. size (Mb)     dimensions
        Kohn-Sham Wavefunctions        16.77 Mb     (    3897,  282)
        NL pseudopotentials            39.01 Mb     (    3897,  656)
        Each V/rho on FFT grid          7.50 Mb     (  245760,   2)
        Each G-vector array             0.94 Mb     (  122712)
        G-vector shells                 0.42 Mb     (   55687)
     Largest temporary arrays     est. size (Mb)     dimensions
        Auxiliary wavefunctions        67.07 Mb     (    3897, 1128)
        Each subspace H/S matrix       19.42 Mb     (    1128, 1128)
        Each <psi_i|beta_j> matrix      2.82 Mb     (     656,  282)
        Arrays for rho mixing          37.50 Mb     (  245760,   10)

     Initial potential from superposition of free atoms
     Check: negative starting charge=(component1):   -0.000937
     Check: negative starting charge=(component2):   -0.000509

     starting charge  363.99092, renormalised to  364.00000

     negative rho (up, down):  9.371E-04 5.091E-04
 
     Adding external electric field

     Computed dipole along edir(3) : 
        Dipole               -0.0006 Ry au,         -0.0014 Debye
        Dipole field         -0.0000 Ry au
 
        Potential amp.        0.0001 Ry
        Total length         73.6798 bohr
 
 
     Adding external electric field

     Computed dipole along edir(3) : 
        Dipole               -0.0006 Ry au,         -0.0014 Debye
        Dipole field         -0.0000 Ry au
 
        Potential amp.        0.0001 Ry
        Total length         73.6798 bohr
 
     Starting wfc are  328 randomized atomic wfcs

     total cpu time spent up to now is       51.8 secs

     Self-consistent Calculation

     iteration #  1     ecut=    44.10 Ry     beta=0.10
     Davidson diagonalization with overlap
     ethr =  1.00E-02,  avg # of iterations =  8.2

     negative rho (up, down):  8.527E-04 4.549E-04
 
     Adding external electric field

     Computed dipole along edir(3) : 
        Dipole               -2.0168 Ry au,         -5.1262 Debye
        Dipole field         -0.0020 Ry au
 
        Potential amp.        0.2975 Ry
        Total length         73.6798 bohr
 
 
     Adding external electric field

     Computed dipole along edir(3) : 
        Dipole               -2.0168 Ry au,         -5.1262 Debye
        Dipole field         -0.0020 Ry au
 
        Potential amp.        0.2975 Ry
        Total length         73.6798 bohr
 
 
     Magnetic moment per site:
     atom:    1    charge:    3.9660    magn:    1.1129    constr:    0.0000
     atom:    2    charge:    3.9660    magn:    1.1129    constr:    0.0000
     atom:    3    charge:    3.9287    magn:    1.1528    constr:    0.0000
     atom:    4    charge:    3.9503    magn:    1.1300    constr:    0.0000
     atom:    5    charge:    3.9531    magn:    1.1284    constr:    0.0000
     atom:    6    charge:    3.9503    magn:    1.1300    constr:    0.0000
     atom:    7    charge:    3.9635    magn:    1.1162    constr:    0.0000
     atom:    8    charge:    3.9635    magn:    1.1162    constr:    0.0000
     atom:    9    charge:    3.9595    magn:    1.1201    constr:    0.0000
     atom:   10    charge:    3.9723    magn:    1.1100    constr:    0.0000
     atom:   11    charge:    3.9723    magn:    1.1116    constr:    0.0000
     atom:   12    charge:    3.9723    magn:    1.1100    constr:    0.0000
     atom:   13    charge:    3.9709    magn:    1.1104    constr:    0.0000
     atom:   14    charge:    3.9709    magn:    1.1104    constr:    0.0000
     atom:   15    charge:    3.9714    magn:    1.1102    constr:    0.0000
     atom:   16    charge:    3.9723    magn:    1.1092    constr:    0.0000
     atom:   17    charge:    3.9729    magn:    1.1088    constr:    0.0000
     atom:   18    charge:    3.9723    magn:    1.1092    constr:    0.0000
     atom:   19    charge:    3.9712    magn:    1.1095    constr:    0.0000
     atom:   20    charge:    3.9712    magn:    1.1095    constr:    0.0000
     atom:   21    charge:    3.9716    magn:    1.1085    constr:    0.0000
     atom:   22    charge:    3.9709    magn:    1.1106    constr:    0.0000
     atom:   23    charge:    3.9709    magn:    1.1106    constr:    0.0000
     atom:   24    charge:    3.9709    magn:    1.1106    constr:    0.0000
     atom:   25    charge:    3.9667    magn:    1.1134    constr:    0.0000
     atom:   26    charge:    3.9667    magn:    1.1134    constr:    0.0000
     atom:   27    charge:    3.9668    magn:    1.1135    constr:    0.0000
     atom:   28    charge:    3.9583    magn:    1.1187    constr:    0.0000
     atom:   29    charge:    3.9589    magn:    1.1183    constr:    0.0000
     atom:   30    charge:    3.9583    magn:    1.1187    constr:    0.0000
     atom:   31    charge:    3.9483    magn:    1.1317    constr:    0.0000
     atom:   32    charge:    3.9483    magn:    1.1317    constr:    0.0000
     atom:   33    charge:    3.9480    magn:    1.1318    constr:    0.0000
     atom:   34    charge:    3.9242    magn:    1.1555    constr:    0.0000
     atom:   35    charge:    3.9242    magn:    1.1555    constr:    0.0000
     atom:   36    charge:    3.9242    magn:    1.1555    constr:    0.0000
     atom:   37    charge:    0.5907    magn:    0.4045    constr:    0.0000

     total cpu time spent up to now is      220.9 secs

     total energy              =   -3631.06260644 Ry
     Harris-Foulkes estimate   =   -3632.98088069 Ry
     estimated scf accuracy    <      15.33641022 Ry

     total magnetization       =    38.45 Bohr mag/cell
     absolute magnetization    =    38.45 Bohr mag/cell

     iteration #  2     ecut=    44.10 Ry     beta=0.10
     Davidson diagonalization with overlap
     ethr =  4.21E-03,  avg # of iterations =  4.0

     negative rho (up, down):  8.412E-04 5.108E-04
 
     Adding external electric field

     Computed dipole along edir(3) : 
        Dipole                0.6198 Ry au,          1.5754 Debye
        Dipole field          0.0006 Ry au
 
        Potential amp.       -0.0914 Ry
        Total length         73.6798 bohr
 
 
     Adding external electric field

     Computed dipole along edir(3) : 
        Dipole                0.6198 Ry au,          1.5754 Debye
        Dipole field          0.0006 Ry au
 
        Potential amp.       -0.0914 Ry
        Total length         73.6798 bohr
 
 
     Magnetic moment per site:
     atom:    1    charge:    3.9679    magn:    1.1009    constr:    0.0000
     atom:    2    charge:    3.9679    magn:    1.1009    constr:    0.0000
     atom:    3    charge:    3.9410    magn:    1.1363    constr:    0.0000
     atom:    4    charge:    3.9547    magn:    1.1185    constr:    0.0000
     atom:    5    charge:    3.9544    magn:    1.1197    constr:    0.0000
     atom:    6    charge:    3.9547    magn:    1.1185    constr:    0.0000
     atom:    7    charge:    3.9552    magn:    1.1149    constr:    0.0000
     atom:    8    charge:    3.9552    magn:    1.1149    constr:    0.0000
     atom:    9    charge:    3.9561    magn:    1.1146    constr:    0.0000
     atom:   10    charge:    3.9595    magn:    1.1109    constr:    0.0000
     atom:   11    charge:    3.9574    magn:    1.1148    constr:    0.0000
     atom:   12    charge:    3.9596    magn:    1.1110    constr:    0.0000
     atom:   13    charge:    3.9561    magn:    1.1132    constr:    0.0000
     atom:   14    charge:    3.9561    magn:    1.1132    constr:    0.0000
     atom:   15    charge:    3.9571    magn:    1.1128    constr:    0.0000
     atom:   16    charge:    3.9585    magn:    1.1112    constr:    0.0000
     atom:   17    charge:    3.9584    magn:    1.1113    constr:    0.0000
     atom:   18    charge:    3.9585    magn:    1.1112    constr:    0.0000
     atom:   19    charge:    3.9626    magn:    1.1068    constr:    0.0000
     atom:   20    charge:    3.9626    magn:    1.1068    constr:    0.0000
     atom:   21    charge:    3.9630    magn:    1.1058    constr:    0.0000
     atom:   22    charge:    3.9714    magn:    1.1003    constr:    0.0000
     atom:   23    charge:    3.9713    magn:    1.1003    constr:    0.0000
     atom:   24    charge:    3.9714    magn:    1.1003    constr:    0.0000
     atom:   25    charge:    3.9732    magn:    1.0985    constr:    0.0000
     atom:   26    charge:    3.9732    magn:    1.0985    constr:    0.0000
     atom:   27    charge:    3.9734    magn:    1.0986    constr:    0.0000
     atom:   28    charge:    3.9682    magn:    1.1022    constr:    0.0000
     atom:   29    charge:    3.9688    magn:    1.1018    constr:    0.0000
     atom:   30    charge:    3.9682    magn:    1.1022    constr:    0.0000
     atom:   31    charge:    3.9612    magn:    1.1142    constr:    0.0000
     atom:   32    charge:    3.9612    magn:    1.1142    constr:    0.0000
     atom:   33    charge:    3.9609    magn:    1.1142    constr:    0.0000
     atom:   34    charge:    3.9402    magn:    1.1373    constr:    0.0000
     atom:   35    charge:    3.9402    magn:    1.1373    constr:    0.0000
     atom:   36    charge:    3.9402    magn:    1.1373    constr:    0.0000
     atom:   37    charge:    0.5929    magn:    0.4018    constr:    0.0000

     total cpu time spent up to now is      339.1 secs

     total energy              =   -3630.14983742 Ry
     Harris-Foulkes estimate   =   -3636.77037819 Ry
     estimated scf accuracy    <     203.62543707 Ry

     total magnetization       =    45.22 Bohr mag/cell
     absolute magnetization    =    45.24 Bohr mag/cell

     iteration #  3     ecut=    44.10 Ry     beta=0.10
     Davidson diagonalization with overlap
     ethr =  4.21E-03,  avg # of iterations =  3.8

     negative rho (up, down):  8.411E-04 5.631E-04
 
     Adding external electric field

     Computed dipole along edir(3) : 
        Dipole               -0.4931 Ry au,         -1.2534 Debye
        Dipole field         -0.0005 Ry au
 
        Potential amp.        0.0727 Ry
        Total length         73.6798 bohr
 
 
     Adding external electric field

     Computed dipole along edir(3) : 
        Dipole               -0.4931 Ry au,         -1.2534 Debye
        Dipole field         -0.0005 Ry au
 
        Potential amp.        0.0727 Ry
        Total length         73.6798 bohr
 
 
     Magnetic moment per site:
     atom:    1    charge:    3.9756    magn:    1.0836    constr:    0.0000
     atom:    2    charge:    3.9756    magn:    1.0836    constr:    0.0000
     atom:    3    charge:    3.9573    magn:    1.1149    constr:    0.0000
     atom:    4    charge:    3.9661    magn:    1.0995    constr:    0.0000
     atom:    5    charge:    3.9647    magn:    1.1016    constr:    0.0000
     atom:    6    charge:    3.9661    magn:    1.0995    constr:    0.0000
     atom:    7    charge:    3.9609    magn:    1.0999    constr:    0.0000
     atom:    8    charge:    3.9609    magn:    1.0999    constr:    0.0000
     atom:    9    charge:    3.9635    magn:    1.0980    constr:    0.0000
     atom:   10    charge:    3.9616    magn:    1.0978    constr:    0.0000
     atom:   11    charge:    3.9591    magn:    1.1024    constr:    0.0000
     atom:   12    charge:    3.9616    magn:    1.0978    constr:    0.0000
     atom:   13    charge:    3.9557    magn:    1.1022    constr:    0.0000
     atom:   14    charge:    3.9557    magn:    1.1022    constr:    0.0000
     atom:   15    charge:    3.9568    magn:    1.1017    constr:    0.0000
     atom:   16    charge:    3.9543    magn:    1.1034    constr:    0.0000
     atom:   17    charge:    3.9538    magn:    1.1038    constr:    0.0000
     atom:   18    charge:    3.9542    magn:    1.1034    constr:    0.0000
     atom:   19    charge:    3.9539    magn:    1.1028    constr:    0.0000
     atom:   20    charge:    3.9539    magn:    1.1028    constr:    0.0000
     atom:   21    charge:    3.9540    magn:    1.1019    constr:    0.0000
     atom:   22    charge:    3.9594    magn:    1.0987    constr:    0.0000
     atom:   23    charge:    3.9592    magn:    1.0987    constr:    0.0000
     atom:   24    charge:    3.9594    magn:    1.0987    constr:    0.0000
     atom:   25    charge:    3.9632    magn:    1.0952    constr:    0.0000
     atom:   26    charge:    3.9632    magn:    1.0952    constr:    0.0000
     atom:   27    charge:    3.9633    magn:    1.0952    constr:    0.0000
     atom:   28    charge:    3.9613    magn:    1.0976    constr:    0.0000
     atom:   29    charge:    3.9616    magn:    1.0975    constr:    0.0000
     atom:   30    charge:    3.9613    magn:    1.0976    constr:    0.0000
     atom:   31    charge:    3.9647    magn:    1.1019    constr:    0.0000
     atom:   32    charge:    3.9647    magn:    1.1018    constr:    0.0000
     atom:   33    charge:    3.9646    magn:    1.1017    constr:    0.0000
     atom:   34    charge:    3.9546    magn:    1.1175    constr:    0.0000
     atom:   35    charge:    3.9546    magn:    1.1175    constr:    0.0000
     atom:   36    charge:    3.9546    magn:    1.1174    constr:    0.0000
     atom:   37    charge:    0.5970    magn:    0.3990    constr:    0.0000

     total cpu time spent up to now is      454.7 secs

     total energy              =   -3631.77799622 Ry
     Harris-Foulkes estimate   =   -3634.70501403 Ry
     estimated scf accuracy    <     142.42131748 Ry

     total magnetization       =    41.60 Bohr mag/cell
     absolute magnetization    =    41.66 Bohr mag/cell

     iteration #  4     ecut=    44.10 Ry     beta=0.10
     Davidson diagonalization with overlap
     ethr =  4.21E-03,  avg # of iterations =  1.0

     negative rho (up, down):  8.481E-04 6.324E-04
 
     Adding external electric field

     Computed dipole along edir(3) : 
        Dipole               -0.1959 Ry au,         -0.4980 Debye
        Dipole field         -0.0002 Ry au
 
        Potential amp.        0.0289 Ry
        Total length         73.6798 bohr
 
 
     Adding external electric field

     Computed dipole along edir(3) : 
        Dipole               -0.1959 Ry au,         -0.4980 Debye
        Dipole field         -0.0002 Ry au
 
        Potential amp.        0.0289 Ry
        Total length         73.6798 bohr
 
 
     Magnetic moment per site:
     atom:    1    charge:    3.9703    magn:    1.0727    constr:    0.0000
     atom:    2    charge:    3.9703    magn:    1.0727    constr:    0.0000
     atom:    3    charge:    3.9642    magn:    1.0994    constr:    0.0000
     atom:    4    charge:    3.9634    magn:    1.0912    constr:    0.0000
     atom:    5    charge:    3.9612    magn:    1.0945    constr:    0.0000
     atom:    6    charge:    3.9634    magn:    1.0912    constr:    0.0000
     atom:    7    charge:    3.9624    magn:    1.0875    constr:    0.0000
     atom:    8    charge:    3.9624    magn:    1.0875    constr:    0.0000
     atom:    9    charge:    3.9634    magn:    1.0868    constr:    0.0000
     atom:   10    charge:    3.9639    magn:    1.0841    constr:    0.0000
     atom:   11    charge:    3.9615    magn:    1.0891    constr:    0.0000
     atom:   12    charge:    3.9639    magn:    1.0841    constr:    0.0000
     atom:   13    charge:    3.9596    magn:    1.0876    constr:    0.0000
     atom:   14    charge:    3.9596    magn:    1.0876    constr:    0.0000
     atom:   15    charge:    3.9601    magn:    1.0876    constr:    0.0000
     atom:   16    charge:    3.9580    magn:    1.0891    constr:    0.0000
     atom:   17    charge:    3.9581    magn:    1.0891    constr:    0.0000
     atom:   18    charge:    3.9580    magn:    1.0891    constr:    0.0000
     atom:   19    charge:    3.9559    magn:    1.0898    constr:    0.0000
     atom:   20    charge:    3.9559    magn:    1.0898    constr:    0.0000
     atom:   21    charge:    3.9559    magn:    1.0890    constr:    0.0000
     atom:   22    charge:    3.9565    magn:    1.0894    constr:    0.0000
     atom:   23    charge:    3.9565    magn:    1.0893    constr:    0.0000
     atom:   24    charge:    3.9565    magn:    1.0894    constr:    0.0000
     atom:   25    charge:    3.9589    magn:    1.0865    constr:    0.0000
     atom:   26    charge:    3.9589    magn:    1.0865    constr:    0.0000
     atom:   27    charge:    3.9590    magn:    1.0866    constr:    0.0000
     atom:   28    charge:    3.9598    magn:    1.0871    constr:    0.0000
     atom:   29    charge:    3.9599    magn:    1.0872    constr:    0.0000
     atom:   30    charge:    3.9598    magn:    1.0871    constr:    0.0000
     atom:   31    charge:    3.9677    magn:    1.0876    constr:    0.0000
     atom:   32    charge:    3.9678    magn:    1.0876    constr:    0.0000
     atom:   33    charge:    3.9677    magn:    1.0874    constr:    0.0000
     atom:   34    charge:    3.9668    magn:    1.0968    constr:    0.0000
     atom:   35    charge:    3.9668    magn:    1.0968    constr:    0.0000
     atom:   36    charge:    3.9668    magn:    1.0967    constr:    0.0000
     atom:   37    charge:    0.5988    magn:    0.3948    constr:    0.0000

     total cpu time spent up to now is      556.0 secs

     total energy              =   -3632.93451159 Ry
     Harris-Foulkes estimate   =   -3633.15002945 Ry
     estimated scf accuracy    <      20.11563699 Ry

     total magnetization       =    38.24 Bohr mag/cell
     absolute magnetization    =    38.26 Bohr mag/cell

     iteration #  5     ecut=    44.10 Ry     beta=0.10
     Davidson diagonalization with overlap
     ethr =  4.21E-03,  avg # of iterations =  1.0

     negative rho (up, down):  8.398E-04 6.172E-04
 
     Adding external electric field

     Computed dipole along edir(3) : 
        Dipole               -0.3507 Ry au,         -0.8914 Debye
        Dipole field         -0.0004 Ry au
 
        Potential amp.        0.0517 Ry
        Total length         73.6798 bohr
 
 
     Adding external electric field

     Computed dipole along edir(3) : 
        Dipole               -0.3507 Ry au,         -0.8914 Debye
        Dipole field         -0.0004 Ry au
 
        Potential amp.        0.0517 Ry
        Total length         73.6798 bohr
 
 
     Magnetic moment per site:
     atom:    1    charge:    3.9741    magn:    1.0041    constr:    0.0000
     atom:    2    charge:    3.9741    magn:    1.0041    constr:    0.0000
     atom:    3    charge:    3.9961    magn:    1.0260    constr:    0.0000
     atom:    4    charge:    3.9740    magn:    1.0336    constr:    0.0000
     atom:    5    charge:    3.9721    magn:    1.0383    constr:    0.0000
     atom:    6    charge:    3.9740    magn:    1.0336    constr:    0.0000
     atom:    7    charge:    3.9645    magn:    1.0353    constr:    0.0000
     atom:    8    charge:    3.9645    magn:    1.0353    constr:    0.0000
     atom:    9    charge:    3.9632    magn:    1.0359    constr:    0.0000
     atom:   10    charge:    3.9586    magn:    1.0347    constr:    0.0000
     atom:   11    charge:    3.9599    magn:    1.0394    constr:    0.0000
     atom:   12    charge:    3.9586    magn:    1.0347    constr:    0.0000
     atom:   13    charge:    3.9578    magn:    1.0376    constr:    0.0000
     atom:   14    charge:    3.9578    magn:    1.0376    constr:    0.0000
     atom:   15    charge:    3.9568    magn:    1.0391    constr:    0.0000
     atom:   16    charge:    3.9575    magn:    1.0391    constr:    0.0000
     atom:   17    charge:    3.9585    magn:    1.0385    constr:    0.0000
     atom:   18    charge:    3.9575    magn:    1.0391    constr:    0.0000
     atom:   19    charge:    3.9603    magn:    1.0356    constr:    0.0000
     atom:   20    charge:    3.9603    magn:    1.0356    constr:    0.0000
     atom:   21    charge:    3.9602    magn:    1.0344    constr:    0.0000
     atom:   22    charge:    3.9608    magn:    1.0352    constr:    0.0000
     atom:   23    charge:    3.9608    magn:    1.0349    constr:    0.0000
     atom:   24    charge:    3.9608    magn:    1.0352    constr:    0.0000
     atom:   25    charge:    3.9585    magn:    1.0344    constr:    0.0000
     atom:   26    charge:    3.9585    magn:    1.0344    constr:    0.0000
     atom:   27    charge:    3.9588    magn:    1.0346    constr:    0.0000
     atom:   28    charge:    3.9654    magn:    1.0313    constr:    0.0000
     atom:   29    charge:    3.9657    magn:    1.0317    constr:    0.0000
     atom:   30    charge:    3.9654    magn:    1.0313    constr:    0.0000
     atom:   31    charge:    3.9675    magn:    1.0375    constr:    0.0000
     atom:   32    charge:    3.9675    magn:    1.0375    constr:    0.0000
     atom:   33    charge:    3.9674    magn:    1.0370    constr:    0.0000
     atom:   34    charge:    3.9935    magn:    1.0261    constr:    0.0000
     atom:   35    charge:    3.9932    magn:    1.0260    constr:    0.0000
     atom:   36    charge:    3.9935    magn:    1.0261    constr:    0.0000
     atom:   37    charge:    0.6077    magn:    0.3774    constr:    0.0000

     total cpu time spent up to now is      657.5 secs

     total energy              =   -3633.10914543 Ry
     Harris-Foulkes estimate   =   -3633.05894129 Ry
     estimated scf accuracy    <       3.56013839 Ry

     total magnetization       =    38.40 Bohr mag/cell
     absolute magnetization    =    38.44 Bohr mag/cell

     iteration #  6     ecut=    44.10 Ry     beta=0.10
     Davidson diagonalization with overlap
     ethr =  9.78E-04,  avg # of iterations =  1.0

     negative rho (up, down):  8.196E-04 5.234E-04
 
     Adding external electric field

     Computed dipole along edir(3) : 
        Dipole               -0.3933 Ry au,         -0.9998 Debye
        Dipole field         -0.0004 Ry au
 
        Potential amp.        0.0580 Ry
        Total length         73.6798 bohr
 
 
     Adding external electric field

     Computed dipole along edir(3) : 
        Dipole               -0.3933 Ry au,         -0.9998 Debye
        Dipole field         -0.0004 Ry au
 
        Potential amp.        0.0580 Ry
        Total length         73.6798 bohr
 
 
     Magnetic moment per site:
     atom:    1    charge:    3.9797    magn:    0.8514    constr:    0.0000
     atom:    2    charge:    3.9797    magn:    0.8514    constr:    0.0000
     atom:    3    charge:    4.0045    magn:    0.9160    constr:    0.0000
     atom:    4    charge:    3.9899    magn:    0.9106    constr:    0.0000
     atom:    5    charge:    3.9875    magn:    0.9191    constr:    0.0000
     atom:    6    charge:    3.9899    magn:    0.9106    constr:    0.0000
     atom:    7    charge:    3.9783    magn:    0.9100    constr:    0.0000
     atom:    8    charge:    3.9783    magn:    0.9100    constr:    0.0000
     atom:    9    charge:    3.9762    magn:    0.9109    constr:    0.0000
     atom:   10    charge:    3.9603    magn:    0.9137    constr:    0.0000
     atom:   11    charge:    3.9639    magn:    0.9210    constr:    0.0000
     atom:   12    charge:    3.9603    magn:    0.9137    constr:    0.0000
     atom:   13    charge:    3.9614    magn:    0.9184    constr:    0.0000
     atom:   14    charge:    3.9614    magn:    0.9184    constr:    0.0000
     atom:   15    charge:    3.9608    magn:    0.9202    constr:    0.0000
     atom:   16    charge:    3.9624    magn:    0.9204    constr:    0.0000
     atom:   17    charge:    3.9625    magn:    0.9206    constr:    0.0000
     atom:   18    charge:    3.9624    magn:    0.9204    constr:    0.0000
     atom:   19    charge:    3.9608    magn:    0.9192    constr:    0.0000
     atom:   20    charge:    3.9608    magn:    0.9193    constr:    0.0000
     atom:   21    charge:    3.9613    magn:    0.9169    constr:    0.0000
     atom:   22    charge:    3.9628    magn:    0.9171    constr:    0.0000
     atom:   23    charge:    3.9622    magn:    0.9171    constr:    0.0000
     atom:   24    charge:    3.9628    magn:    0.9171    constr:    0.0000
     atom:   25    charge:    3.9560    magn:    0.9185    constr:    0.0000
     atom:   26    charge:    3.9560    magn:    0.9185    constr:    0.0000
     atom:   27    charge:    3.9563    magn:    0.9190    constr:    0.0000
     atom:   28    charge:    3.9738    magn:    0.9090    constr:    0.0000
     atom:   29    charge:    3.9735    magn:    0.9108    constr:    0.0000
     atom:   30    charge:    3.9738    magn:    0.9090    constr:    0.0000
     atom:   31    charge:    3.9907    magn:    0.9066    constr:    0.0000
     atom:   32    charge:    3.9907    magn:    0.9066    constr:    0.0000
     atom:   33    charge:    3.9911    magn:    0.9053    constr:    0.0000
     atom:   34    charge:    4.0187    magn:    0.8985    constr:    0.0000
     atom:   35    charge:    4.0183    magn:    0.8983    constr:    0.0000
     atom:   36    charge:    4.0187    magn:    0.8985    constr:    0.0000
     atom:   37    charge:    0.6273    magn:    0.3372    constr:    0.0000

     total cpu time spent up to now is      758.8 secs

     total energy              =   -3633.65894260 Ry
     Harris-Foulkes estimate   =   -3633.30802761 Ry
     estimated scf accuracy    <       8.10467697 Ry

     total magnetization       =    38.00 Bohr mag/cell
     absolute magnetization    =    38.09 Bohr mag/cell

     iteration #  7     ecut=    44.10 Ry     beta=0.10
     Davidson diagonalization with overlap
     ethr =  9.78E-04,  avg # of iterations =  5.8

     negative rho (up, down):  8.134E-04 5.305E-04
 
     Adding external electric field

     Computed dipole along edir(3) : 
        Dipole               -0.5190 Ry au,         -1.3192 Debye
        Dipole field         -0.0005 Ry au
 
        Potential amp.        0.0766 Ry
        Total length         73.6798 bohr
 
 
     Adding external electric field

     Computed dipole along edir(3) : 
        Dipole               -0.5190 Ry au,         -1.3192 Debye
        Dipole field         -0.0005 Ry au
 
        Potential amp.        0.0766 Ry
        Total length         73.6798 bohr
 
 
     Magnetic moment per site:
     atom:    1    charge:    3.9769    magn:    0.8423    constr:    0.0000
     atom:    2    charge:    3.9769    magn:    0.8423    constr:    0.0000
     atom:    3    charge:    4.0091    magn:    0.9043    constr:    0.0000
     atom:    4    charge:    3.9852    magn:    0.9063    constr:    0.0000
     atom:    5    charge:    3.9798    magn:    0.9179    constr:    0.0000
     atom:    6    charge:    3.9852    magn:    0.9063    constr:    0.0000
     atom:    7    charge:    3.9744    magn:    0.9050    constr:    0.0000
     atom:    8    charge:    3.9744    magn:    0.9049    constr:    0.0000
     atom:    9    charge:    3.9764    magn:    0.9027    constr:    0.0000
     atom:   10    charge:    3.9641    magn:    0.9032    constr:    0.0000
     atom:   11    charge:    3.9641    magn:    0.9131    constr:    0.0000
     atom:   12    charge:    3.9641    magn:    0.9032    constr:    0.0000
     atom:   13    charge:    3.9625    magn:    0.9098    constr:    0.0000
     atom:   14    charge:    3.9625    magn:    0.9098    constr:    0.0000
     atom:   15    charge:    3.9628    magn:    0.9110    constr:    0.0000
     atom:   16    charge:    3.9633    magn:    0.9116    constr:    0.0000
     atom:   17    charge:    3.9629    magn:    0.9123    constr:    0.0000
     atom:   18    charge:    3.9633    magn:    0.9116    constr:    0.0000
     atom:   19    charge:    3.9615    magn:    0.9107    constr:    0.0000
     atom:   20    charge:    3.9615    magn:    0.9107    constr:    0.0000
     atom:   21    charge:    3.9621    magn:    0.9082    constr:    0.0000
     atom:   22    charge:    3.9625    magn:    0.9092    constr:    0.0000
     atom:   23    charge:    3.9622    magn:    0.9089    constr:    0.0000
     atom:   24    charge:    3.9625    magn:    0.9092    constr:    0.0000
     atom:   25    charge:    3.9605    magn:    0.9074    constr:    0.0000
     atom:   26    charge:    3.9605    magn:    0.9074    constr:    0.0000
     atom:   27    charge:    3.9606    magn:    0.9081    constr:    0.0000
     atom:   28    charge:    3.9734    magn:    0.9013    constr:    0.0000
     atom:   29    charge:    3.9734    magn:    0.9028    constr:    0.0000
     atom:   30    charge:    3.9734    magn:    0.9013    constr:    0.0000
     atom:   31    charge:    3.9872    magn:    0.9016    constr:    0.0000
     atom:   32    charge:    3.9872    magn:    0.9016    constr:    0.0000
     atom:   33    charge:    3.9873    magn:    0.9007    constr:    0.0000
     atom:   34    charge:    4.0051    magn:    0.9023    constr:    0.0000
     atom:   35    charge:    4.0050    magn:    0.9017    constr:    0.0000
     atom:   36    charge:    4.0051    magn:    0.9023    constr:    0.0000
     atom:   37    charge:    0.6272    magn:    0.3333    constr:    0.0000

     total cpu time spent up to now is      879.2 secs

     total energy              =   -3633.62771349 Ry
     Harris-Foulkes estimate   =   -3633.87327604 Ry
     estimated scf accuracy    <      20.74814101 Ry

     total magnetization       =    36.30 Bohr mag/cell
     absolute magnetization    =    36.84 Bohr mag/cell

     iteration #  8     ecut=    44.10 Ry     beta=0.10
     Davidson diagonalization with overlap
     ethr =  9.78E-04,  avg # of iterations =  1.0

     negative rho (up, down):  8.096E-04 5.459E-04
 
     Adding external electric field

     Computed dipole along edir(3) : 
        Dipole               -0.4782 Ry au,         -1.2155 Debye
        Dipole field         -0.0005 Ry au
 
        Potential amp.        0.0705 Ry
        Total length         73.6798 bohr
 
 
     Adding external electric field

     Computed dipole along edir(3) : 
        Dipole               -0.4782 Ry au,         -1.2155 Debye
        Dipole field         -0.0005 Ry au
 
        Potential amp.        0.0705 Ry
        Total length         73.6798 bohr
 
 
     Magnetic moment per site:
     atom:    1    charge:    3.9765    magn:    0.8182    constr:    0.0000
     atom:    2    charge:    3.9765    magn:    0.8182    constr:    0.0000
     atom:    3    charge:    3.9972    magn:    0.8963    constr:    0.0000
     atom:    4    charge:    3.9808    magn:    0.8923    constr:    0.0000
     atom:    5    charge:    3.9806    magn:    0.9006    constr:    0.0000
     atom:    6    charge:    3.9808    magn:    0.8923    constr:    0.0000
     atom:    7    charge:    3.9730    magn:    0.8885    constr:    0.0000
     atom:    8    charge:    3.9730    magn:    0.8885    constr:    0.0000
     atom:    9    charge:    3.9722    magn:    0.8886    constr:    0.0000
     atom:   10    charge:    3.9659    magn:    0.8848    constr:    0.0000
     atom:   11    charge:    3.9669    magn:    0.8939    constr:    0.0000
     atom:   12    charge:    3.9659    magn:    0.8848    constr:    0.0000
     atom:   13    charge:    3.9642    magn:    0.8916    constr:    0.0000
     atom:   14    charge:    3.9642    magn:    0.8916    constr:    0.0000
     atom:   15    charge:    3.9636    magn:    0.8936    constr:    0.0000
     atom:   16    charge:    3.9630    magn:    0.8951    constr:    0.0000
     atom:   17    charge:    3.9637    magn:    0.8949    constr:    0.0000
     atom:   18    charge:    3.9630    magn:    0.8951    constr:    0.0000
     atom:   19    charge:    3.9625    magn:    0.8928    constr:    0.0000
     atom:   20    charge:    3.9625    magn:    0.8928    constr:    0.0000
     atom:   21    charge:    3.9623    magn:    0.8912    constr:    0.0000
     atom:   22    charge:    3.9628    magn:    0.8920    constr:    0.0000
     atom:   23    charge:    3.9631    magn:    0.8912    constr:    0.0000
     atom:   24    charge:    3.9628    magn:    0.8920    constr:    0.0000
     atom:   25    charge:    3.9640    magn:    0.8881    constr:    0.0000
     atom:   26    charge:    3.9640    magn:    0.8881    constr:    0.0000
     atom:   27    charge:    3.9637    magn:    0.8892    constr:    0.0000
     atom:   28    charge:    3.9699    magn:    0.8867    constr:    0.0000
     atom:   29    charge:    3.9704    magn:    0.8879    constr:    0.0000
     atom:   30    charge:    3.9699    magn:    0.8867    constr:    0.0000
     atom:   31    charge:    3.9789    magn:    0.8909    constr:    0.0000
     atom:   32    charge:    3.9789    magn:    0.8909    constr:    0.0000
     atom:   33    charge:    3.9789    magn:    0.8902    constr:    0.0000
     atom:   34    charge:    3.9990    magn:    0.8889    constr:    0.0000
     atom:   35    charge:    3.9989    magn:    0.8884    constr:    0.0000
     atom:   36    charge:    3.9990    magn:    0.8889    constr:    0.0000
     atom:   37    charge:    0.6270    magn:    0.3251    constr:    0.0000

     total cpu time spent up to now is      980.6 secs

     total energy              =   -3633.74907105 Ry
     Harris-Foulkes estimate   =   -3633.75134177 Ry
     estimated scf accuracy    <       2.05818690 Ry

     total magnetization       =    35.81 Bohr mag/cell
     absolute magnetization    =    36.42 Bohr mag/cell

     iteration #  9     ecut=    44.10 Ry     beta=0.10
     Davidson diagonalization with overlap
     ethr =  5.65E-04,  avg # of iterations =  1.0

     negative rho (up, down):  8.006E-04 5.300E-04
 
     Adding external electric field

     Computed dipole along edir(3) : 
        Dipole               -0.3167 Ry au,         -0.8051 Debye
        Dipole field         -0.0003 Ry au
 
        Potential amp.        0.0467 Ry
        Total length         73.6798 bohr
 
 
     Adding external electric field

     Computed dipole along edir(3) : 
        Dipole               -0.3167 Ry au,         -0.8051 Debye
        Dipole field         -0.0003 Ry au
 
        Potential amp.        0.0467 Ry
        Total length         73.6798 bohr
 
 
     Magnetic moment per site:
     atom:    1    charge:    3.9701    magn:    0.6813    constr:    0.0000
     atom:    2    charge:    3.9701    magn:    0.6813    constr:    0.0000
     atom:    3    charge:    3.9944    magn:    0.7972    constr:    0.0000
     atom:    4    charge:    3.9781    magn:    0.7946    constr:    0.0000
     atom:    5    charge:    3.9759    magn:    0.8091    constr:    0.0000
     atom:    6    charge:    3.9781    magn:    0.7946    constr:    0.0000
     atom:    7    charge:    3.9705    magn:    0.7894    constr:    0.0000
     atom:    8    charge:    3.9705    magn:    0.7894    constr:    0.0000
     atom:    9    charge:    3.9709    magn:    0.7888    constr:    0.0000
     atom:   10    charge:    3.9668    magn:    0.7838    constr:    0.0000
     atom:   11    charge:    3.9639    magn:    0.7976    constr:    0.0000
     atom:   12    charge:    3.9668    magn:    0.7838    constr:    0.0000
     atom:   13    charge:    3.9639    magn:    0.7940    constr:    0.0000
     atom:   14    charge:    3.9639    magn:    0.7940    constr:    0.0000
     atom:   15    charge:    3.9668    magn:    0.7937    constr:    0.0000
     atom:   16    charge:    3.9654    magn:    0.7963    constr:    0.0000
     atom:   17    charge:    3.9638    magn:    0.7983    constr:    0.0000
     atom:   18    charge:    3.9654    magn:    0.7962    constr:    0.0000
     atom:   19    charge:    3.9643    magn:    0.7932    constr:    0.0000
     atom:   20    charge:    3.9643    magn:    0.7932    constr:    0.0000
     atom:   21    charge:    3.9671    magn:    0.7897    constr:    0.0000
     atom:   22    charge:    3.9685    magn:    0.7900    constr:    0.0000
     atom:   23    charge:    3.9662    magn:    0.7912    constr:    0.0000
     atom:   24    charge:    3.9685    magn:    0.7900    constr:    0.0000
     atom:   25    charge:    3.9589    magn:    0.7943    constr:    0.0000
     atom:   26    charge:    3.9589    magn:    0.7943    constr:    0.0000
     atom:   27    charge:    3.9609    magn:    0.7935    constr:    0.0000
     atom:   28    charge:    3.9651    magn:    0.7900    constr:    0.0000
     atom:   29    charge:    3.9638    magn:    0.7930    constr:    0.0000
     atom:   30    charge:    3.9651    magn:    0.7900    constr:    0.0000
     atom:   31    charge:    3.9718    magn:    0.7960    constr:    0.0000
     atom:   32    charge:    3.9718    magn:    0.7960    constr:    0.0000
     atom:   33    charge:    3.9733    magn:    0.7944    constr:    0.0000
     atom:   34    charge:    3.9925    magn:    0.7895    constr:    0.0000
     atom:   35    charge:    3.9911    magn:    0.7899    constr:    0.0000
     atom:   36    charge:    3.9925    magn:    0.7895    constr:    0.0000
     atom:   37    charge:    0.6283    magn:    0.2796    constr:    0.0000

     total cpu time spent up to now is     1082.3 secs

     total energy              =   -3634.07382797 Ry
     Harris-Foulkes estimate   =   -3633.79129412 Ry
     estimated scf accuracy    <       1.25713517 Ry

     total magnetization       =    34.92 Bohr mag/cell
     absolute magnetization    =    35.64 Bohr mag/cell

     iteration # 10     ecut=    44.10 Ry     beta=0.10
     Davidson diagonalization with overlap
     ethr =  3.45E-04,  avg # of iterations =  4.1

     negative rho (up, down):  8.170E-04 5.926E-04
 
     Adding external electric field

     Computed dipole along edir(3) : 
        Dipole               -0.2266 Ry au,         -0.5760 Debye
        Dipole field         -0.0002 Ry au
 
        Potential amp.        0.0334 Ry
        Total length         73.6798 bohr
 
 
     Adding external electric field

     Computed dipole along edir(3) : 
        Dipole               -0.2266 Ry au,         -0.5760 Debye
        Dipole field         -0.0002 Ry au
 
        Potential amp.        0.0334 Ry
        Total length         73.6798 bohr
 
 
     Magnetic moment per site:
     atom:    1    charge:    3.9649    magn:    0.5546    constr:    0.0000
     atom:    2    charge:    3.9649    magn:    0.5546    constr:    0.0000
     atom:    3    charge:    3.9979    magn:    0.7025    constr:    0.0000
     atom:    4    charge:    3.9761    magn:    0.7052    constr:    0.0000
     atom:    5    charge:    3.9807    magn:    0.7181    constr:    0.0000
     atom:    6    charge:    3.9761    magn:    0.7052    constr:    0.0000
     atom:    7    charge:    3.9718    magn:    0.6957    constr:    0.0000
     atom:    8    charge:    3.9718    magn:    0.6957    constr:    0.0000
     atom:    9    charge:    3.9675    magn:    0.6993    constr:    0.0000
     atom:   10    charge:    3.9646    magn:    0.6927    constr:    0.0000
     atom:   11    charge:    3.9692    magn:    0.7025    constr:    0.0000
     atom:   12    charge:    3.9646    magn:    0.6928    constr:    0.0000
     atom:   13    charge:    3.9672    magn:    0.7012    constr:    0.0000
     atom:   14    charge:    3.9672    magn:    0.7012    constr:    0.0000
     atom:   15    charge:    3.9640    magn:    0.7057    constr:    0.0000
     atom:   16    charge:    3.9669    magn:    0.7052    constr:    0.0000
     atom:   17    charge:    3.9698    magn:    0.7042    constr:    0.0000
     atom:   18    charge:    3.9669    magn:    0.7052    constr:    0.0000
     atom:   19    charge:    3.9674    magn:    0.6998    constr:    0.0000
     atom:   20    charge:    3.9674    magn:    0.6998    constr:    0.0000
     atom:   21    charge:    3.9649    magn:    0.7009    constr:    0.0000
     atom:   22    charge:    3.9651    magn:    0.7021    constr:    0.0000
     atom:   23    charge:    3.9678    magn:    0.6994    constr:    0.0000
     atom:   24    charge:    3.9651    magn:    0.7021    constr:    0.0000
     atom:   25    charge:    3.9619    magn:    0.7019    constr:    0.0000
     atom:   26    charge:    3.9619    magn:    0.7019    constr:    0.0000
     atom:   27    charge:    3.9600    magn:    0.7040    constr:    0.0000
     atom:   28    charge:    3.9646    magn:    0.6988    constr:    0.0000
     atom:   29    charge:    3.9668    magn:    0.6992    constr:    0.0000
     atom:   30    charge:    3.9646    magn:    0.6988    constr:    0.0000
     atom:   31    charge:    3.9729    magn:    0.7039    constr:    0.0000
     atom:   32    charge:    3.9729    magn:    0.7039    constr:    0.0000
     atom:   33    charge:    3.9706    magn:    0.7057    constr:    0.0000
     atom:   34    charge:    3.9888    magn:    0.6987    constr:    0.0000
     atom:   35    charge:    3.9919    magn:    0.6952    constr:    0.0000
     atom:   36    charge:    3.9888    magn:    0.6987    constr:    0.0000
     atom:   37    charge:    0.6295    magn:    0.2375    constr:    0.0000

     total cpu time spent up to now is     1194.6 secs

     total energy              =   -3634.30836620 Ry
     Harris-Foulkes estimate   =   -3634.11818100 Ry
     estimated scf accuracy    <       1.19927631 Ry

     total magnetization       =    31.95 Bohr mag/cell
     absolute magnetization    =    33.42 Bohr mag/cell

     iteration # 11     ecut=    44.10 Ry     beta=0.10
     Davidson diagonalization with overlap
     ethr =  3.29E-04,  avg # of iterations =  6.8

     negative rho (up, down):  8.728E-04 7.558E-04
 
     Adding external electric field

     Computed dipole along edir(3) : 
        Dipole               -0.1861 Ry au,         -0.4729 Debye
        Dipole field         -0.0002 Ry au
 
        Potential amp.        0.0274 Ry
        Total length         73.6798 bohr
 
 
     Adding external electric field

     Computed dipole along edir(3) : 
        Dipole               -0.1861 Ry au,         -0.4729 Debye
        Dipole field         -0.0002 Ry au
 
        Potential amp.        0.0274 Ry
        Total length         73.6798 bohr
 
 
     Magnetic moment per site:
     atom:    1    charge:    3.9601    magn:    0.3990    constr:    0.0000
     atom:    2    charge:    3.9601    magn:    0.3990    constr:    0.0000
     atom:    3    charge:    3.9954    magn:    0.5928    constr:    0.0000
     atom:    4    charge:    3.9774    magn:    0.5945    constr:    0.0000
     atom:    5    charge:    3.9839    magn:    0.6099    constr:    0.0000
     atom:    6    charge:    3.9774    magn:    0.5945    constr:    0.0000
     atom:    7    charge:    3.9711    magn:    0.5838    constr:    0.0000
     atom:    8    charge:    3.9711    magn:    0.5838    constr:    0.0000
     atom:    9    charge:    3.9682    magn:    0.5882    constr:    0.0000
     atom:   10    charge:    3.9664    magn:    0.5796    constr:    0.0000
     atom:   11    charge:    3.9723    magn:    0.5893    constr:    0.0000
     atom:   12    charge:    3.9664    magn:    0.5796    constr:    0.0000
     atom:   13    charge:    3.9699    magn:    0.5894    constr:    0.0000
     atom:   14    charge:    3.9699    magn:    0.5894    constr:    0.0000
     atom:   15    charge:    3.9693    magn:    0.5923    constr:    0.0000
     atom:   16    charge:    3.9706    magn:    0.5926    constr:    0.0000
     atom:   17    charge:    3.9690    magn:    0.5953    constr:    0.0000
     atom:   18    charge:    3.9706    magn:    0.5926    constr:    0.0000
     atom:   19    charge:    3.9679    magn:    0.5884    constr:    0.0000
     atom:   20    charge:    3.9679    magn:    0.5884    constr:    0.0000
     atom:   21    charge:    3.9694    magn:    0.5873    constr:    0.0000
     atom:   22    charge:    3.9666    magn:    0.5910    constr:    0.0000
     atom:   23    charge:    3.9651    magn:    0.5916    constr:    0.0000
     atom:   24    charge:    3.9666    magn:    0.5910    constr:    0.0000
     atom:   25    charge:    3.9673    magn:    0.5887    constr:    0.0000
     atom:   26    charge:    3.9673    magn:    0.5887    constr:    0.0000
     atom:   27    charge:    3.9684    magn:    0.5882    constr:    0.0000
     atom:   28    charge:    3.9672    magn:    0.5867    constr:    0.0000
     atom:   29    charge:    3.9647    magn:    0.5906    constr:    0.0000
     atom:   30    charge:    3.9672    magn:    0.5867    constr:    0.0000
     atom:   31    charge:    3.9709    magn:    0.5964    constr:    0.0000
     atom:   32    charge:    3.9709    magn:    0.5964    constr:    0.0000
     atom:   33    charge:    3.9745    magn:    0.5942    constr:    0.0000
     atom:   34    charge:    3.9898    magn:    0.5867    constr:    0.0000
     atom:   35    charge:    3.9816    magn:    0.5928    constr:    0.0000
     atom:   36    charge:    3.9898    magn:    0.5867    constr:    0.0000
     atom:   37    charge:    0.6290    magn:    0.1841    constr:    0.0000

     total cpu time spent up to now is     1317.9 secs

     total energy              =   -3634.50022470 Ry
     Harris-Foulkes estimate   =   -3634.36051060 Ry
     estimated scf accuracy    <       2.57438252 Ry

     total magnetization       =    30.11 Bohr mag/cell
     absolute magnetization    =    32.20 Bohr mag/cell

     iteration # 12     ecut=    44.10 Ry     beta=0.10
     Davidson diagonalization with overlap
     ethr =  3.29E-04,  avg # of iterations =  5.6

     negative rho (up, down):  9.191E-04 8.746E-04
 
     Adding external electric field

     Computed dipole along edir(3) : 
        Dipole               -0.1957 Ry au,         -0.4974 Debye
        Dipole field         -0.0002 Ry au
 
        Potential amp.        0.0289 Ry
        Total length         73.6798 bohr
 
 
     Adding external electric field

     Computed dipole along edir(3) : 
        Dipole               -0.1957 Ry au,         -0.4974 Debye
        Dipole field         -0.0002 Ry au
 
        Potential amp.        0.0289 Ry
        Total length         73.6798 bohr
 
 
     Magnetic moment per site:
     atom:    1    charge:    3.9576    magn:    0.2858    constr:    0.0000
     atom:    2    charge:    3.9576    magn:    0.2858    constr:    0.0000
     atom:    3    charge:    3.9848    magn:    0.5196    constr:    0.0000
     atom:    4    charge:    3.9722    magn:    0.5199    constr:    0.0000
     atom:    5    charge:    3.9783    magn:    0.5382    constr:    0.0000
     atom:    6    charge:    3.9722    magn:    0.5199    constr:    0.0000
     atom:    7    charge:    3.9687    magn:    0.5056    constr:    0.0000
     atom:    8    charge:    3.9687    magn:    0.5056    constr:    0.0000
     atom:    9    charge:    3.9674    magn:    0.5106    constr:    0.0000
     atom:   10    charge:    3.9702    magn:    0.4984    constr:    0.0000
     atom:   11    charge:    3.9727    magn:    0.5098    constr:    0.0000
     atom:   12    charge:    3.9702    magn:    0.4984    constr:    0.0000
     atom:   13    charge:    3.9712    magn:    0.5108    constr:    0.0000
     atom:   14    charge:    3.9712    magn:    0.5108    constr:    0.0000
     atom:   15    charge:    3.9730    magn:    0.5121    constr:    0.0000
     atom:   16    charge:    3.9709    magn:    0.5144    constr:    0.0000
     atom:   17    charge:    3.9691    magn:    0.5176    constr:    0.0000
     atom:   18    charge:    3.9709    magn:    0.5144    constr:    0.0000
     atom:   19    charge:    3.9700    magn:    0.5083    constr:    0.0000
     atom:   20    charge:    3.9700    magn:    0.5083    constr:    0.0000
     atom:   21    charge:    3.9722    magn:    0.5074    constr:    0.0000
     atom:   22    charge:    3.9718    magn:    0.5098    constr:    0.0000
     atom:   23    charge:    3.9704    magn:    0.5104    constr:    0.0000
     atom:   24    charge:    3.9718    magn:    0.5098    constr:    0.0000
     atom:   25    charge:    3.9707    magn:    0.5093    constr:    0.0000
     atom:   26    charge:    3.9707    magn:    0.5094    constr:    0.0000
     atom:   27    charge:    3.9694    magn:    0.5101    constr:    0.0000
     atom:   28    charge:    3.9635    magn:    0.5118    constr:    0.0000
     atom:   29    charge:    3.9648    magn:    0.5126    constr:    0.0000
     atom:   30    charge:    3.9635    magn:    0.5118    constr:    0.0000
     atom:   31    charge:    3.9683    magn:    0.5214    constr:    0.0000
     atom:   32    charge:    3.9683    magn:    0.5214    constr:    0.0000
     atom:   33    charge:    3.9663    magn:    0.5238    constr:    0.0000
     atom:   34    charge:    3.9731    magn:    0.5205    constr:    0.0000
     atom:   35    charge:    3.9772    magn:    0.5174    constr:    0.0000
     atom:   36    charge:    3.9731    magn:    0.5205    constr:    0.0000
     atom:   37    charge:    0.6247    magn:    0.1426    constr:    0.0000

     total cpu time spent up to now is     1434.9 secs

     total energy              =   -3634.53475410 Ry
     Harris-Foulkes estimate   =   -3634.55277811 Ry
     estimated scf accuracy    <       2.55434976 Ry

     total magnetization       =    27.74 Bohr mag/cell
     absolute magnetization    =    30.60 Bohr mag/cell

     iteration # 13     ecut=    44.10 Ry     beta=0.10
     Davidson diagonalization with overlap
     ethr =  3.29E-04,  avg # of iterations =  1.4

     negative rho (up, down):  9.184E-04 8.804E-04
 
     Adding external electric field

     Computed dipole along edir(3) : 
        Dipole               -0.2109 Ry au,         -0.5360 Debye
        Dipole field         -0.0002 Ry au
 
        Potential amp.        0.0311 Ry
        Total length         73.6798 bohr
 
 
     Adding external electric field

     Computed dipole along edir(3) : 
        Dipole               -0.2109 Ry au,         -0.5360 Debye
        Dipole field         -0.0002 Ry au
 
        Potential amp.        0.0311 Ry
        Total length         73.6798 bohr
 
 
     Magnetic moment per site:
     atom:    1    charge:    3.9590    magn:    0.2432    constr:    0.0000
     atom:    2    charge:    3.9590    magn:    0.2432    constr:    0.0000
     atom:    3    charge:    3.9861    magn:    0.4896    constr:    0.0000
     atom:    4    charge:    3.9710    magn:    0.4924    constr:    0.0000
     atom:    5    charge:    3.9786    magn:    0.5101    constr:    0.0000
     atom:    6    charge:    3.9710    magn:    0.4924    constr:    0.0000
     atom:    7    charge:    3.9702    magn:    0.4754    constr:    0.0000
     atom:    8    charge:    3.9702    magn:    0.4754    constr:    0.0000
     atom:    9    charge:    3.9671    magn:    0.4826    constr:    0.0000
     atom:   10    charge:    3.9694    magn:    0.4699    constr:    0.0000
     atom:   11    charge:    3.9733    magn:    0.4800    constr:    0.0000
     atom:   12    charge:    3.9694    magn:    0.4699    constr:    0.0000
     atom:   13    charge:    3.9713    magn:    0.4820    constr:    0.0000
     atom:   14    charge:    3.9713    magn:    0.4820    constr:    0.0000
     atom:   15    charge:    3.9702    magn:    0.4854    constr:    0.0000
     atom:   16    charge:    3.9711    magn:    0.4855    constr:    0.0000
     atom:   17    charge:    3.9723    magn:    0.4871    constr:    0.0000
     atom:   18    charge:    3.9711    magn:    0.4855    constr:    0.0000
     atom:   19    charge:    3.9715    magn:    0.4786    constr:    0.0000
     atom:   20    charge:    3.9715    magn:    0.4786    constr:    0.0000
     atom:   21    charge:    3.9713    magn:    0.4791    constr:    0.0000
     atom:   22    charge:    3.9726    magn:    0.4807    constr:    0.0000
     atom:   23    charge:    3.9730    magn:    0.4802    constr:    0.0000
     atom:   24    charge:    3.9727    magn:    0.4807    constr:    0.0000
     atom:   25    charge:    3.9679    magn:    0.4829    constr:    0.0000
     atom:   26    charge:    3.9679    magn:    0.4829    constr:    0.0000
     atom:   27    charge:    3.9686    magn:    0.4823    constr:    0.0000
     atom:   28    charge:    3.9657    magn:    0.4825    constr:    0.0000
     atom:   29    charge:    3.9654    magn:    0.4842    constr:    0.0000
     atom:   30    charge:    3.9657    magn:    0.4825    constr:    0.0000
     atom:   31    charge:    3.9691    magn:    0.4936    constr:    0.0000
     atom:   32    charge:    3.9691    magn:    0.4936    constr:    0.0000
     atom:   33    charge:    3.9697    magn:    0.4940    constr:    0.0000
     atom:   34    charge:    3.9779    magn:    0.4895    constr:    0.0000
     atom:   35    charge:    3.9772    magn:    0.4898    constr:    0.0000
     atom:   36    charge:    3.9779    magn:    0.4895    constr:    0.0000
     atom:   37    charge:    0.6231    magn:    0.1267    constr:    0.0000

     total cpu time spent up to now is     1537.9 secs

     total energy              =   -3634.60175125 Ry
     Harris-Foulkes estimate   =   -3634.60865317 Ry
     estimated scf accuracy    <       0.78109951 Ry

     total magnetization       =    25.01 Bohr mag/cell
     absolute magnetization    =    28.52 Bohr mag/cell

     iteration # 14     ecut=    44.10 Ry     beta=0.10
     Davidson diagonalization with overlap
     ethr =  2.15E-04,  avg # of iterations =  1.9

     negative rho (up, down):  9.210E-04 8.971E-04
 
     Adding external electric field

     Computed dipole along edir(3) : 
        Dipole               -0.2607 Ry au,         -0.6626 Debye
        Dipole field         -0.0003 Ry au
 
        Potential amp.        0.0385 Ry
        Total length         73.6798 bohr
 
 
     Adding external electric field

     Computed dipole along edir(3) : 
        Dipole               -0.2607 Ry au,         -0.6626 Debye
        Dipole field         -0.0003 Ry au
 
        Potential amp.        0.0385 Ry
        Total length         73.6798 bohr
 
 
     Magnetic moment per site:
     atom:    1    charge:    3.9600    magn:    0.1903    constr:    0.0000
     atom:    2    charge:    3.9600    magn:    0.1903    constr:    0.0000
     atom:    3    charge:    3.9829    magn:    0.4568    constr:    0.0000
     atom:    4    charge:    3.9714    magn:    0.4584    constr:    0.0000
     atom:    5    charge:    3.9776    magn:    0.4770    constr:    0.0000
     atom:    6    charge:    3.9714    magn:    0.4584    constr:    0.0000
     atom:    7    charge:    3.9691    magn:    0.4414    constr:    0.0000
     atom:    8    charge:    3.9691    magn:    0.4414    constr:    0.0000
     atom:    9    charge:    3.9682    magn:    0.4489    constr:    0.0000
     atom:   10    charge:    3.9714    magn:    0.4341    constr:    0.0000
     atom:   11    charge:    3.9730    magn:    0.4441    constr:    0.0000
     atom:   12    charge:    3.9714    magn:    0.4341    constr:    0.0000
     atom:   13    charge:    3.9718    magn:    0.4472    constr:    0.0000
     atom:   14    charge:    3.9718    magn:    0.4472    constr:    0.0000
     atom:   15    charge:    3.9726    magn:    0.4495    constr:    0.0000
     atom:   16    charge:    3.9721    magn:    0.4502    constr:    0.0000
     atom:   17    charge:    3.9721    magn:    0.4527    constr:    0.0000
     atom:   18    charge:    3.9721    magn:    0.4502    constr:    0.0000
     atom:   19    charge:    3.9703    magn:    0.4451    constr:    0.0000
     atom:   20    charge:    3.9703    magn:    0.4451    constr:    0.0000
     atom:   21    charge:    3.9706    magn:    0.4450    constr:    0.0000
     atom:   22    charge:    3.9717    magn:    0.4473    constr:    0.0000
     atom:   23    charge:    3.9722    magn:    0.4465    constr:    0.0000
     atom:   24    charge:    3.9717    magn:    0.4473    constr:    0.0000
     atom:   25    charge:    3.9703    magn:    0.4481    constr:    0.0000
     atom:   26    charge:    3.9703    magn:    0.4481    constr:    0.0000
     atom:   27    charge:    3.9702    magn:    0.4478    constr:    0.0000
     atom:   28    charge:    3.9665    magn:    0.4502    constr:    0.0000
     atom:   29    charge:    3.9674    magn:    0.4504    constr:    0.0000
     atom:   30    charge:    3.9665    magn:    0.4502    constr:    0.0000
     atom:   31    charge:    3.9714    magn:    0.4609    constr:    0.0000
     atom:   32    charge:    3.9714    magn:    0.4609    constr:    0.0000
     atom:   33    charge:    3.9705    magn:    0.4621    constr:    0.0000
     atom:   34    charge:    3.9794    magn:    0.4578    constr:    0.0000
     atom:   35    charge:    3.9793    magn:    0.4574    constr:    0.0000
     atom:   36    charge:    3.9794    magn:    0.4578    constr:    0.0000
     atom:   37    charge:    0.6183    magn:    0.1040    constr:    0.0000

     total cpu time spent up to now is     1642.0 secs

     total energy              =   -3634.61524225 Ry
     Harris-Foulkes estimate   =   -3634.61434531 Ry
     estimated scf accuracy    <       0.17706694 Ry

     total magnetization       =    24.20 Bohr mag/cell
     absolute magnetization    =    27.94 Bohr mag/cell

     iteration # 15     ecut=    44.10 Ry     beta=0.10
     Davidson diagonalization with overlap
     ethr =  4.86E-05,  avg # of iterations = 10.7

     negative rho (up, down):  9.136E-04 8.919E-04
 
     Adding external electric field

     Computed dipole along edir(3) : 
        Dipole               -0.2699 Ry au,         -0.6860 Debye
        Dipole field         -0.0003 Ry au
 
        Potential amp.        0.0398 Ry
        Total length         73.6798 bohr
 
 
     Adding external electric field

     Computed dipole along edir(3) : 
        Dipole               -0.2699 Ry au,         -0.6860 Debye
        Dipole field         -0.0003 Ry au
 
        Potential amp.        0.0398 Ry
        Total length         73.6798 bohr
 
 
     Magnetic moment per site:
     atom:    1    charge:    3.9607    magn:    0.1513    constr:    0.0000
     atom:    2    charge:    3.9607    magn:    0.1513    constr:    0.0000
     atom:    3    charge:    3.9819    magn:    0.4327    constr:    0.0000
     atom:    4    charge:    3.9713    magn:    0.4349    constr:    0.0000
     atom:    5    charge:    3.9776    magn:    0.4526    constr:    0.0000
     atom:    6    charge:    3.9713    magn:    0.4349    constr:    0.0000
     atom:    7    charge:    3.9692    magn:    0.4169    constr:    0.0000
     atom:    8    charge:    3.9692    magn:    0.4169    constr:    0.0000
     atom:    9    charge:    3.9677    magn:    0.4264    constr:    0.0000
     atom:   10    charge:    3.9716    magn:    0.4093    constr:    0.0000
     atom:   11    charge:    3.9738    magn:    0.4176    constr:    0.0000
     atom:   12    charge:    3.9716    magn:    0.4093    constr:    0.0000
     atom:   13    charge:    3.9720    magn:    0.4225    constr:    0.0000
     atom:   14    charge:    3.9720    magn:    0.4225    constr:    0.0000
     atom:   15    charge:    3.9725    magn:    0.4253    constr:    0.0000
     atom:   16    charge:    3.9712    magn:    0.4260    constr:    0.0000
     atom:   17    charge:    3.9711    magn:    0.4286    constr:    0.0000
     atom:   18    charge:    3.9712    magn:    0.4260    constr:    0.0000
     atom:   19    charge:    3.9710    magn:    0.4206    constr:    0.0000
     atom:   20    charge:    3.9710    magn:    0.4206    constr:    0.0000
     atom:   21    charge:    3.9717    magn:    0.4198    constr:    0.0000
     atom:   22    charge:    3.9730    magn:    0.4225    constr:    0.0000
     atom:   23    charge:    3.9728    magn:    0.4220    constr:    0.0000
     atom:   24    charge:    3.9730    magn:    0.4225    constr:    0.0000
     atom:   25    charge:    3.9714    magn:    0.4239    constr:    0.0000
     atom:   26    charge:    3.9714    magn:    0.4239    constr:    0.0000
     atom:   27    charge:    3.9714    magn:    0.4236    constr:    0.0000
     atom:   28    charge:    3.9683    magn:    0.4272    constr:    0.0000
     atom:   29    charge:    3.9684    magn:    0.4271    constr:    0.0000
     atom:   30    charge:    3.9683    magn:    0.4272    constr:    0.0000
     atom:   31    charge:    3.9731    magn:    0.4386    constr:    0.0000
     atom:   32    charge:    3.9731    magn:    0.4386    constr:    0.0000
     atom:   33    charge:    3.9729    magn:    0.4389    constr:    0.0000
     atom:   34    charge:    3.9800    magn:    0.4367    constr:    0.0000
     atom:   35    charge:    3.9805    magn:    0.4358    constr:    0.0000
     atom:   36    charge:    3.9800    magn:    0.4367    constr:    0.0000
     atom:   37    charge:    0.6137    magn:    0.0856    constr:    0.0000

     total cpu time spent up to now is     1787.1 secs

     total energy              =   -3634.61672298 Ry
     Harris-Foulkes estimate   =   -3634.62096557 Ry
     estimated scf accuracy    <       0.18614460 Ry

     total magnetization       =    23.21 Bohr mag/cell
     absolute magnetization    =    27.19 Bohr mag/cell

     iteration # 16     ecut=    44.10 Ry     beta=0.10
     Davidson diagonalization with overlap
     ethr =  4.86E-05,  avg # of iterations =  1.0

     negative rho (up, down):  8.918E-04 8.531E-04
 
     Adding external electric field

     Computed dipole along edir(3) : 
        Dipole               -0.3136 Ry au,         -0.7970 Debye
        Dipole field         -0.0003 Ry au
 
        Potential amp.        0.0463 Ry
        Total length         73.6798 bohr
 
 
     Adding external electric field

     Computed dipole along edir(3) : 
        Dipole               -0.3136 Ry au,         -0.7970 Debye
        Dipole field         -0.0003 Ry au
 
        Potential amp.        0.0463 Ry
        Total length         73.6798 bohr
 
 
     Magnetic moment per site:
     atom:    1    charge:    3.9608    magn:    0.1391    constr:    0.0000
     atom:    2    charge:    3.9608    magn:    0.1391    constr:    0.0000
     atom:    3    charge:    3.9816    magn:    0.4261    constr:    0.0000
     atom:    4    charge:    3.9725    magn:    0.4276    constr:    0.0000
     atom:    5    charge:    3.9787    magn:    0.4444    constr:    0.0000
     atom:    6    charge:    3.9725    magn:    0.4276    constr:    0.0000
     atom:    7    charge:    3.9705    magn:    0.4093    constr:    0.0000
     atom:    8    charge:    3.9705    magn:    0.4093    constr:    0.0000
     atom:    9    charge:    3.9687    magn:    0.4199    constr:    0.0000
     atom:   10    charge:    3.9716    magn:    0.4023    constr:    0.0000
     atom:   11    charge:    3.9742    magn:    0.4094    constr:    0.0000
     atom:   12    charge:    3.9716    magn:    0.4023    constr:    0.0000
     atom:   13    charge:    3.9719    magn:    0.4155    constr:    0.0000
     atom:   14    charge:    3.9719    magn:    0.4155    constr:    0.0000
     atom:   15    charge:    3.9721    magn:    0.4186    constr:    0.0000
     atom:   16    charge:    3.9705    magn:    0.4193    constr:    0.0000
     atom:   17    charge:    3.9702    magn:    0.4220    constr:    0.0000
     atom:   18    charge:    3.9705    magn:    0.4193    constr:    0.0000
     atom:   19    charge:    3.9706    magn:    0.4142    constr:    0.0000
     atom:   20    charge:    3.9706    magn:    0.4142    constr:    0.0000
     atom:   21    charge:    3.9715    magn:    0.4130    constr:    0.0000
     atom:   22    charge:    3.9730    magn:    0.4159    constr:    0.0000
     atom:   23    charge:    3.9724    magn:    0.4155    constr:    0.0000
     atom:   24    charge:    3.9730    magn:    0.4159    constr:    0.0000
     atom:   25    charge:    3.9713    magn:    0.4175    constr:    0.0000
     atom:   26    charge:    3.9713    magn:    0.4175    constr:    0.0000
     atom:   27    charge:    3.9713    magn:    0.4173    constr:    0.0000
     atom:   28    charge:    3.9687    magn:    0.4215    constr:    0.0000
     atom:   29    charge:    3.9683    magn:    0.4213    constr:    0.0000
     atom:   30    charge:    3.9687    magn:    0.4215    constr:    0.0000
     atom:   31    charge:    3.9738    magn:    0.4328    constr:    0.0000
     atom:   32    charge:    3.9738    magn:    0.4328    constr:    0.0000
     atom:   33    charge:    3.9741    magn:    0.4326    constr:    0.0000
     atom:   34    charge:    3.9810    magn:    0.4313    constr:    0.0000
     atom:   35    charge:    3.9816    magn:    0.4303    constr:    0.0000
     atom:   36    charge:    3.9810    magn:    0.4313    constr:    0.0000
     atom:   37    charge:    0.6117    magn:    0.0783    constr:    0.0000

     total cpu time spent up to now is     1888.1 secs

     total energy              =   -3634.61804804 Ry
     Harris-Foulkes estimate   =   -3634.62198557 Ry
     estimated scf accuracy    <       0.25307767 Ry

     total magnetization       =    22.66 Bohr mag/cell
     absolute magnetization    =    26.75 Bohr mag/cell

     iteration # 17     ecut=    44.10 Ry     beta=0.10
     Davidson diagonalization with overlap
     ethr =  4.86E-05,  avg # of iterations =  1.0

     negative rho (up, down):  8.751E-04 8.245E-04
 
     Adding external electric field

     Computed dipole along edir(3) : 
        Dipole               -0.3082 Ry au,         -0.7833 Debye
        Dipole field         -0.0003 Ry au
 
        Potential amp.        0.0455 Ry
        Total length         73.6798 bohr
 
 
     Adding external electric field

     Computed dipole along edir(3) : 
        Dipole               -0.3082 Ry au,         -0.7833 Debye
        Dipole field         -0.0003 Ry au
 
        Potential amp.        0.0455 Ry
        Total length         73.6798 bohr
 
 
     Magnetic moment per site:
     atom:    1    charge:    3.9617    magn:    0.1228    constr:    0.0000
     atom:    2    charge:    3.9617    magn:    0.1228    constr:    0.0000
     atom:    3    charge:    3.9825    magn:    0.4165    constr:    0.0000
     atom:    4    charge:    3.9735    magn:    0.4181    constr:    0.0000
     atom:    5    charge:    3.9778    magn:    0.4347    constr:    0.0000
     atom:    6    charge:    3.9735    magn:    0.4181    constr:    0.0000
     atom:    7    charge:    3.9713    magn:    0.3994    constr:    0.0000
     atom:    8    charge:    3.9713    magn:    0.3994    constr:    0.0000
     atom:    9    charge:    3.9709    magn:    0.4103    constr:    0.0000
     atom:   10    charge:    3.9722    magn:    0.3921    constr:    0.0000
     atom:   11    charge:    3.9736    magn:    0.3990    constr:    0.0000
     atom:   12    charge:    3.9722    magn:    0.3921    constr:    0.0000
     atom:   13    charge:    3.9713    magn:    0.4062    constr:    0.0000
     atom:   14    charge:    3.9713    magn:    0.4062    constr:    0.0000
     atom:   15    charge:    3.9717    magn:    0.4096    constr:    0.0000
     atom:   16    charge:    3.9709    magn:    0.4095    constr:    0.0000
     atom:   17    charge:    3.9707    magn:    0.4121    constr:    0.0000
     atom:   18    charge:    3.9709    magn:    0.4095    constr:    0.0000
     atom:   19    charge:    3.9701    magn:    0.4056    constr:    0.0000
     atom:   20    charge:    3.9701    magn:    0.4056    constr:    0.0000
     atom:   21    charge:    3.9703    magn:    0.4042    constr:    0.0000
     atom:   22    charge:    3.9721    magn:    0.4072    constr:    0.0000
     atom:   23    charge:    3.9725    magn:    0.4062    constr:    0.0000
     atom:   24    charge:    3.9721    magn:    0.4072    constr:    0.0000
     atom:   25    charge:    3.9714    magn:    0.4083    constr:    0.0000
     atom:   26    charge:    3.9714    magn:    0.4084    constr:    0.0000
     atom:   27    charge:    3.9713    magn:    0.4084    constr:    0.0000
     atom:   28    charge:    3.9692    magn:    0.4135    constr:    0.0000
     atom:   29    charge:    3.9693    magn:    0.4123    constr:    0.0000
     atom:   30    charge:    3.9692    magn:    0.4135    constr:    0.0000
     atom:   31    charge:    3.9745    magn:    0.4250    constr:    0.0000
     atom:   32    charge:    3.9745    magn:    0.4250    constr:    0.0000
     atom:   33    charge:    3.9743    magn:    0.4247    constr:    0.0000
     atom:   34    charge:    3.9823    magn:    0.4238    constr:    0.0000
     atom:   35    charge:    3.9820    magn:    0.4234    constr:    0.0000
     atom:   36    charge:    3.9823    magn:    0.4238    constr:    0.0000
     atom:   37    charge:    0.6102    magn:    0.0689    constr:    0.0000

     total cpu time spent up to now is     1989.1 secs

     total energy              =   -3634.61932273 Ry
     Harris-Foulkes estimate   =   -3634.62081370 Ry
     estimated scf accuracy    <       0.05577944 Ry

     total magnetization       =    22.45 Bohr mag/cell
     absolute magnetization    =    26.56 Bohr mag/cell

     iteration # 18     ecut=    44.10 Ry     beta=0.10
     Davidson diagonalization with overlap
     ethr =  1.53E-05,  avg # of iterations =  1.0

     negative rho (up, down):  8.564E-04 7.904E-04
 
     Adding external electric field

     Computed dipole along edir(3) : 
        Dipole               -0.3277 Ry au,         -0.8329 Debye
        Dipole field         -0.0003 Ry au
 
        Potential amp.        0.0483 Ry
        Total length         73.6798 bohr
 
 
     Adding external electric field

     Computed dipole along edir(3) : 
        Dipole               -0.3277 Ry au,         -0.8329 Debye
        Dipole field         -0.0003 Ry au
 
        Potential amp.        0.0483 Ry
        Total length         73.6798 bohr
 
 
     Magnetic moment per site:
     atom:    1    charge:    3.9629    magn:    0.1155    constr:    0.0000
     atom:    2    charge:    3.9629    magn:    0.1155    constr:    0.0000
     atom:    3    charge:    3.9832    magn:    0.4127    constr:    0.0000
     atom:    4    charge:    3.9738    magn:    0.4145    constr:    0.0000
     atom:    5    charge:    3.9782    magn:    0.4301    constr:    0.0000
     atom:    6    charge:    3.9738    magn:    0.4145    constr:    0.0000
     atom:    7    charge:    3.9708    magn:    0.3961    constr:    0.0000
     atom:    8    charge:    3.9707    magn:    0.3961    constr:    0.0000
     atom:    9    charge:    3.9702    magn:    0.4079    constr:    0.0000
     atom:   10    charge:    3.9724    magn:    0.3881    constr:    0.0000
     atom:   11    charge:    3.9737    magn:    0.3945    constr:    0.0000
     atom:   12    charge:    3.9724    magn:    0.3881    constr:    0.0000
     atom:   13    charge:    3.9716    magn:    0.4024    constr:    0.0000
     atom:   14    charge:    3.9716    magn:    0.4024    constr:    0.0000
     atom:   15    charge:    3.9719    magn:    0.4059    constr:    0.0000
     atom:   16    charge:    3.9705    magn:    0.4062    constr:    0.0000
     atom:   17    charge:    3.9703    magn:    0.4085    constr:    0.0000
     atom:   18    charge:    3.9704    magn:    0.4062    constr:    0.0000
[...]
     5.2710   5.3529   5.4023   5.4592   5.5386   5.6116   5.6359   5.7483
     5.7745   5.8185   5.8848   5.9202   5.9660   6.0374   6.0916   6.2227
     6.2787   6.2968   6.3523   6.4267   6.5225   6.6001   6.6439   6.6983
     6.7427   6.7895   6.8768   6.9738   7.0244   7.0847   7.1312   7.1929
     7.2283   7.3271   7.4828   7.6396   7.7177   7.7550   7.8356   7.9520
     7.9786   8.0080   8.0618   8.0905   8.1545   8.3049   8.3924   8.4311
     8.4827   8.5500

 ------ SPIN DOWN ----------


          k = 0.0000 0.0000 0.0000 ( 62137 PWs)   bands (ev):

   -11.9274  -9.2375  -7.9284  -6.7671  -6.7498  -6.2592  -5.9503  -5.8920
    -5.8135  -5.7177  -5.3023  -5.2598  -4.9467  -4.8840  -4.8804  -4.7421
    -4.6788  -4.6746  -4.6424  -4.6238  -4.5603  -4.4616  -4.4377  -4.3208
    -4.2795  -4.2772  -4.2468  -4.1958  -4.1287  -4.0412  -4.0045  -4.0014
    -3.9324  -3.9260  -3.9246  -3.9189  -3.8875  -3.8393  -3.7709  -3.6992
    -3.6666  -3.6364  -3.6322  -3.5921  -3.5819  -3.4914  -3.4399  -3.4287
    -3.4061  -3.2593  -3.2227  -3.2098  -3.1785  -3.1514  -3.1261  -3.0981
    -3.0873  -3.0726  -3.0432  -3.0267  -3.0110  -2.9948  -2.9780  -2.9733
    -2.9030  -2.8817  -2.8815  -2.8455  -2.8269  -2.7809  -2.7676  -2.7580
    -2.7340  -2.6742  -2.6585  -2.6494  -2.6308  -2.6047  -2.5673  -2.5621
    -2.5285  -2.5174  -2.4912  -2.4594  -2.4349  -2.4175  -2.4135  -2.4010
    -2.3947  -2.3785  -2.3469  -2.3410  -2.3045  -2.2721  -2.2580  -2.2371
    -2.2278  -2.2220  -2.1883  -2.1771  -2.1734  -2.1613  -2.1488  -2.1390
    -2.1377  -2.0949  -2.0917  -2.0688  -2.0592  -2.0498  -2.0210  -2.0046
    -1.9950  -1.9326  -1.9302  -1.9259  -1.8880  -1.8802  -1.8340  -1.7502
    -1.7308  -1.7184  -1.7138  -1.6977  -1.6754  -1.6650  -1.6427  -1.5965
    -1.5656  -1.5609  -1.5214  -1.5169  -1.4859  -1.4845  -1.4278  -1.4100
    -1.3971  -1.3490  -1.3447  -1.3278  -1.3146  -1.2937  -1.2770  -1.2708
    -1.2421  -1.2229  -1.2141  -1.1995  -1.1723  -1.1512  -1.1303  -1.1208
    -1.1126  -1.0883  -1.0781  -1.0693  -1.0338  -1.0330  -1.0251  -1.0100
    -1.0022  -0.9918  -0.9876  -0.9771  -0.9470  -0.9313  -0.9145  -0.9131
    -0.8562  -0.8474  -0.8454  -0.8167  -0.7918  -0.7820  -0.7724  -0.7712
    -0.7536  -0.7374  -0.7274  -0.7132  -0.6839  -0.6808  -0.6654  -0.6581
    -0.6477  -0.6349  -0.6261  -0.6058  -0.5652  -0.5349  -0.4478  -0.3154
    -0.3147  -0.3088  -0.1524   0.1441   0.3911   0.4925   0.5762   0.6859
     0.7459   0.8102   0.8295   0.8503   1.1029   1.3229   1.3617   1.4679
     1.5018   1.6960   1.8512   2.2214   2.4842   2.6200   2.7111   2.8272
     2.8378   3.1166   3.3594   3.5342   3.6554   3.6801   3.8534   4.0507
     4.0684   4.2861   4.4123   4.5547   4.6989   4.7840   5.0909   5.1044
     5.1494   5.2771   5.3955   5.6835   5.9428   5.9941   6.1000   6.1324
     6.1957   6.2237   6.2645   6.3241   6.3620   6.4273   6.5486   6.5846
     6.6846   6.7818   6.8621   6.8812   7.0306   7.0904   7.1351   7.3053
     7.3448   7.3818   7.4135   7.4816   7.4823   7.5160   7.5702   7.7256
     7.7590   7.7618   7.7825   7.7871   7.8718   8.0413   8.1238   8.1365
     8.2853   8.3367   8.4382   8.4457   8.5405   8.6329   8.7110   8.7706
     8.7980   8.8726

          k = 0.0000 0.0442 0.0000 ( 62100 PWs)   bands (ev):

   -11.9210  -8.9399  -8.0770  -7.6603  -6.8897  -6.0427  -5.7279  -5.5855
    -5.4955  -5.3635  -5.2338  -5.0699  -5.0192  -4.9912  -4.8048  -4.7653
    -4.7166  -4.6898  -4.6664  -4.6408  -4.5181  -4.4739  -4.4103  -4.3407
    -4.3065  -4.2533  -4.2459  -4.1763  -4.1597  -4.1237  -4.0715  -4.0585
    -4.0395  -4.0311  -3.9885  -3.9399  -3.9115  -3.8422  -3.8194  -3.7677
    -3.6876  -3.6476  -3.6052  -3.5976  -3.5432  -3.5025  -3.4343  -3.3809
    -3.3697  -3.2991  -3.2357  -3.2167  -3.1881  -3.1806  -3.1612  -3.1256
    -3.1027  -3.0907  -3.0866  -3.0608  -3.0235  -3.0118  -2.9803  -2.9653
    -2.9536  -2.8999  -2.8534  -2.8248  -2.8237  -2.7943  -2.7762  -2.7412
    -2.7226  -2.6990  -2.6803  -2.6703  -2.6438  -2.6283  -2.6166  -2.5762
    -2.5572  -2.5345  -2.5222  -2.5016  -2.4787  -2.4402  -2.4243  -2.4207
    -2.4036  -2.3723  -2.3480  -2.3403  -2.3321  -2.3155  -2.2965  -2.2695
    -2.2647  -2.2447  -2.2172  -2.2001  -2.1875  -2.1837  -2.1499  -2.1462
    -2.1188  -2.0787  -2.0531  -2.0508  -2.0274  -1.9993  -1.9857  -1.9638
    -1.9564  -1.9480  -1.9246  -1.9057  -1.8791  -1.8576  -1.8237  -1.7985
    -1.7902  -1.7873  -1.7589  -1.7399  -1.7237  -1.7030  -1.6810  -1.6547
    -1.6437  -1.6104  -1.5800  -1.5576  -1.5350  -1.5175  -1.4870  -1.4825
    -1.4432  -1.4359  -1.4048  -1.3900  -1.3682  -1.3298  -1.3129  -1.3051
    -1.2942  -1.2629  -1.2536  -1.2374  -1.2151  -1.2082  -1.1738  -1.1629
    -1.1394  -1.1086  -1.0871  -1.0676  -1.0474  -1.0387  -0.9938  -0.9902
    -0.9767  -0.9397  -0.9149  -0.8971  -0.8795  -0.8474  -0.8287  -0.8209
    -0.7952  -0.7896  -0.7852  -0.7643  -0.7533  -0.7457  -0.7392  -0.7265
    -0.7044  -0.6986  -0.6905  -0.6646  -0.6336  -0.6276  -0.5949  -0.5766
    -0.5559  -0.5432  -0.5217  -0.4727  -0.4573  -0.2380  -0.1836  -0.1140
     0.0054   0.0216   0.0700   0.0804   0.2722   0.3740   0.5358   0.5891
     0.7388   0.9600   1.0050   1.1595   1.2907   1.6047   1.6728   1.7789
     1.8048   1.8498   1.9309   1.9940   2.1820   2.2265   2.3408   2.6225
     2.7901   2.9179   3.2668   3.3569   3.4374   3.6220   3.6647   3.8508
     3.9700   4.0287   4.2459   4.3729   4.5567   4.6027   4.7529   4.8479
     4.8799   5.0384   5.0665   5.2558   5.4286   5.4821   5.5895   5.8407
     5.9547   5.9927   6.0843   6.2203   6.3457   6.5313   6.5848   6.6842
     6.8252   6.8846   7.0878   7.1802   7.3071   7.3112   7.4473   7.5061
     7.6484   7.6768   7.6983   7.7386   7.7687   7.8102   7.8385   8.0049
     8.0150   8.0769   8.1091   8.1686   8.2578   8.3134   8.4201   8.4444
     8.4714   8.4889   8.5309   8.5652   8.5758   8.6258   8.6686   8.6976
     8.7346   8.7873

          k = 0.0541 0.0000 0.0000 ( 61980 PWs)   bands (ev):

   -11.9150  -8.7901  -7.5819  -7.4714  -6.4875  -6.4387  -6.3725  -5.9720
    -5.7686  -5.6150  -5.5201  -5.5032  -5.2869  -5.2557  -5.0687  -4.9569
    -4.9154  -4.8443  -4.7633  -4.5800  -4.4598  -4.4157  -4.4077  -4.2201
    -4.2078  -4.1850  -4.1793  -4.1089  -3.9981  -3.9275  -3.8582  -3.8497
    -3.8190  -3.8170  -3.8103  -3.8052  -3.7721  -3.7631  -3.7408  -3.6821
    -3.6707  -3.6538  -3.6022  -3.5804  -3.5713  -3.5027  -3.4774  -3.4578
    -3.4066  -3.3737  -3.3209  -3.2970  -3.2673  -3.2086  -3.2022  -3.1384
    -3.0852  -3.0644  -3.0208  -3.0202  -2.9853  -2.9789  -2.9507  -2.9185
    -2.8840  -2.8465  -2.8442  -2.8089  -2.7664  -2.7578  -2.7268  -2.7001
    -2.6661  -2.6387  -2.6081  -2.6004  -2.5744  -2.5648  -2.5240  -2.5181
    -2.5033  -2.4564  -2.4385  -2.4326  -2.3839  -2.3834  -2.3656  -2.3593
    -2.3352  -2.3349  -2.3252  -2.3220  -2.3092  -2.2982  -2.2796  -2.2575
    -2.2532  -2.2201  -2.2151  -2.1951  -2.1914  -2.1795  -2.1664  -2.1555
    -2.1375  -2.1036  -2.0903  -2.0706  -2.0413  -2.0333  -2.0201  -1.9818
    -1.9678  -1.9232  -1.8889  -1.8583  -1.8541  -1.8238  -1.7801  -1.7317
    -1.7016  -1.6891  -1.6521  -1.6328  -1.6152  -1.5917  -1.5865  -1.5604
    -1.5519  -1.5066  -1.5060  -1.4765  -1.4695  -1.4482  -1.4461  -1.4358
    -1.3930  -1.3926  -1.3823  -1.3289  -1.3244  -1.3099  -1.2896  -1.2576
    -1.2332  -1.2225  -1.2024  -1.1961  -1.1764  -1.1639  -1.1634  -1.1592
    -1.1324  -1.1092  -1.0814  -1.0721  -1.0555  -1.0421  -1.0026  -1.0006
    -0.9829  -0.9639  -0.9526  -0.9449  -0.9272  -0.9173  -0.9142  -0.8926
    -0.8871  -0.8706  -0.8680  -0.8412  -0.8407  -0.8132  -0.7943  -0.7703
    -0.7685  -0.7236  -0.7198  -0.6915  -0.6906  -0.6631  -0.6622  -0.6512
    -0.6295  -0.6230  -0.6081  -0.5983  -0.5931  -0.5647  -0.5622  -0.5136
    -0.4991  -0.4963  -0.3672  -0.3368  -0.3102  -0.1514  -0.0943   0.0882
     0.2964   0.3352   0.5649   0.9666   1.2218   1.3518   1.7012   1.8295
     2.0105   2.4258   2.8741   2.8907   3.2791   3.3454   3.3825   3.6654
     3.7285   3.8513   3.9999   4.0950   4.1280   4.1773   4.3291   4.4320
     4.5460   4.6560   4.8596   4.9381   4.9621   5.0917   5.2056   5.3494
     5.3502   5.4182   5.5207   5.6145   5.7149   5.7458   5.8001   5.8996
     6.0459   6.1320   6.1699   6.1768   6.3819   6.3873   6.4417   6.4771
     6.5060   6.6081   6.6605   6.6873   6.7721   6.8180   6.8386   6.8837
     6.9340   6.9644   6.9934   7.1291   7.1761   7.2259   7.2652   7.3331
     7.3601   7.4639   7.4859   7.5111   7.6329   7.7398   7.7534   7.7905
     7.8426   7.8936   7.9451   7.9701   8.0095   8.0453   8.0845   8.1211
     8.1470   8.1760

          k = 0.0541 0.0442 0.0000 ( 62079 PWs)   bands (ev):

   -11.9098  -8.4984  -7.6648  -7.3223  -7.1996  -6.6083  -6.4581  -6.1900
    -5.8177  -5.5902  -5.3766  -5.2473  -5.1032  -4.9849  -4.8716  -4.8393
    -4.7833  -4.7307  -4.6960  -4.6083  -4.5376  -4.4689  -4.4115  -4.3311
    -4.2627  -4.2154  -4.1923  -4.1231  -4.0625  -4.0195  -4.0027  -3.9852
    -3.9458  -3.9244  -3.8649  -3.8393  -3.8267  -3.7847  -3.6723  -3.6492
    -3.6163  -3.5891  -3.5641  -3.5393  -3.5330  -3.4607  -3.4327  -3.3989
    -3.3837  -3.3666  -3.3225  -3.2706  -3.2397  -3.2197  -3.1926  -3.1618
    -3.1332  -3.0791  -3.0551  -3.0207  -2.9973  -2.9593  -2.9518  -2.9118
    -2.8895  -2.8428  -2.8248  -2.7935  -2.7842  -2.7721  -2.7333  -2.7256
    -2.7150  -2.6806  -2.6600  -2.6361  -2.6083  -2.5857  -2.5598  -2.5440
    -2.5226  -2.4996  -2.4846  -2.4744  -2.4591  -2.4473  -2.4329  -2.4027
    -2.4003  -2.3790  -2.3514  -2.3188  -2.3156  -2.2987  -2.2831  -2.2560
    -2.2312  -2.2229  -2.2127  -2.1843  -2.1679  -2.1472  -2.1184  -2.1087
    -2.0978  -2.0738  -2.0620  -2.0364  -2.0199  -2.0011  -1.9870  -1.9536
    -1.9177  -1.8955  -1.8793  -1.8701  -1.8576  -1.8286  -1.8053  -1.7913
    -1.7730  -1.7400  -1.7238  -1.7159  -1.6958  -1.6712  -1.6535  -1.6290
    -1.6030  -1.5799  -1.5717  -1.5538  -1.5279  -1.4926  -1.4712  -1.4454
    -1.4256  -1.4208  -1.3712  -1.3496  -1.3434  -1.3337  -1.3235  -1.2949
    -1.2747  -1.2629  -1.2284  -1.2192  -1.1984  -1.1857  -1.1583  -1.1510
    -1.1460  -1.1323  -1.0914  -1.0781  -1.0613  -1.0282  -1.0191  -0.9861
    -0.9833  -0.9660  -0.9501  -0.9314  -0.9121  -0.8967  -0.8798  -0.8593
    -0.8519  -0.8203  -0.8018  -0.7691  -0.7519  -0.7272  -0.7198  -0.7119
    -0.6813  -0.6789  -0.6676  -0.6507  -0.6384  -0.6330  -0.6118  -0.5905
    -0.5861  -0.5679  -0.5516  -0.5202  -0.5109  -0.5041  -0.4489  -0.4003
    -0.3482  -0.2887  -0.0844   0.0315   0.1559   0.2708   0.3861   0.4999
     0.5803   0.6696   0.7541   0.9898   1.2000   1.5527   1.6258   1.7856
     1.9128   1.9545   2.2447   2.3358   2.5667   2.6586   2.9672   3.1314
     3.2454   3.3843   3.7457   3.8239   4.0699   4.3099   4.3330   4.4312
     4.4834   4.5848   4.8033   4.9394   4.9668   4.9903   5.1367   5.2187
     5.3289   5.4036   5.4860   5.5498   5.6342   5.6512   5.7462   5.7966
     5.8635   5.9316   5.9556   5.9939   6.0393   6.1287   6.2267   6.3169
     6.3518   6.3938   6.4494   6.5045   6.5543   6.6577   6.7088   6.7591
     6.7991   6.8303   6.9913   7.0176   7.1219   7.1593   7.1692   7.2484
     7.2857   7.4254   7.5364   7.6866   7.7914   7.8116   7.8986   7.9891
     8.0244   8.0770   8.1293   8.1785   8.2133   8.3586   8.4439   8.5157
     8.5249   8.6197

          k = 0.0541-0.0442 0.0000 ( 62079 PWs)   bands (ev):

   -11.9098  -8.4984  -7.6648  -7.3223  -7.1996  -6.6082  -6.4581  -6.1901
    -5.8176  -5.5900  -5.3765  -5.2474  -5.1036  -4.9849  -4.8716  -4.8389
    -4.7833  -4.7307  -4.6961  -4.6082  -4.5377  -4.4691  -4.4114  -4.3311
    -4.2628  -4.2156  -4.1922  -4.1232  -4.0624  -4.0197  -4.0027  -3.9853
    -3.9456  -3.9244  -3.8649  -3.8393  -3.8266  -3.7847  -3.6723  -3.6490
    -3.6165  -3.5890  -3.5639  -3.5395  -3.5330  -3.4606  -3.4329  -3.3989
    -3.3837  -3.3666  -3.3225  -3.2704  -3.2397  -3.2198  -3.1926  -3.1618
    -3.1333  -3.0790  -3.0551  -3.0207  -2.9974  -2.9594  -2.9518  -2.9115
    -2.8896  -2.8427  -2.8248  -2.7936  -2.7843  -2.7720  -2.7333  -2.7256
    -2.7149  -2.6807  -2.6599  -2.6362  -2.6082  -2.5858  -2.5599  -2.5440
    -2.5224  -2.4996  -2.4845  -2.4742  -2.4592  -2.4472  -2.4331  -2.4029
    -2.4004  -2.3791  -2.3513  -2.3185  -2.3156  -2.2987  -2.2832  -2.2560
    -2.2313  -2.2231  -2.2128  -2.1843  -2.1678  -2.1471  -2.1184  -2.1087
    -2.0977  -2.0738  -2.0619  -2.0365  -2.0200  -2.0013  -1.9869  -1.9537
    -1.9175  -1.8956  -1.8792  -1.8701  -1.8574  -1.8287  -1.8052  -1.7913
    -1.7729  -1.7398  -1.7240  -1.7159  -1.6958  -1.6712  -1.6534  -1.6289
    -1.6030  -1.5798  -1.5719  -1.5538  -1.5278  -1.4927  -1.4711  -1.4455
    -1.4257  -1.4207  -1.3712  -1.3496  -1.3435  -1.3336  -1.3236  -1.2950
    -1.2747  -1.2629  -1.2285  -1.2191  -1.1983  -1.1856  -1.1583  -1.1510
    -1.1460  -1.1322  -1.0914  -1.0780  -1.0613  -1.0282  -1.0191  -0.9861
    -0.9833  -0.9660  -0.9501  -0.9315  -0.9121  -0.8967  -0.8798  -0.8593
    -0.8519  -0.8203  -0.8018  -0.7691  -0.7519  -0.7272  -0.7198  -0.7119
    -0.6813  -0.6788  -0.6677  -0.6507  -0.6383  -0.6331  -0.6117  -0.5904
    -0.5861  -0.5679  -0.5516  -0.5202  -0.5109  -0.5041  -0.4489  -0.4003
    -0.3481  -0.2888  -0.0843   0.0315   0.1559   0.2708   0.3860   0.4998
     0.5802   0.6696   0.7541   0.9898   1.1999   1.5527   1.6258   1.7858
     1.9126   1.9546   2.2446   2.3359   2.5665   2.6586   2.9671   3.1313
     3.2455   3.3843   3.7459   3.8240   4.0699   4.3099   4.3330   4.4311
     4.4834   4.5848   4.8033   4.9394   4.9668   4.9904   5.1367   5.2187
     5.3289   5.4036   5.4861   5.5499   5.6342   5.6512   5.7462   5.7966
     5.8635   5.9316   5.9556   5.9939   6.0393   6.1287   6.2266   6.3170
     6.3518   6.3939   6.4494   6.5045   6.5543   6.6576   6.7087   6.7591
     6.7991   6.8303   6.9913   7.0176   7.1218   7.1593   7.1692   7.2485
     7.2857   7.4254   7.5364   7.6866   7.7914   7.8116   7.8986   7.9891
     8.0244   8.0769   8.1294   8.1787   8.2133   8.3585   8.4440   8.5154
     8.5249   8.6198

     the Fermi energy is    -0.8016 ev

!    total energy              =   -3634.69487797 Ry
     Harris-Foulkes estimate   =   -3634.69487792 Ry
     estimated scf accuracy    <       0.00000063 Ry

     The total energy is the sum of the following terms:

     one-electron contribution =  -77088.12365764 Ry
     hartree contribution      =   38904.56735015 Ry
     xc contribution           =   -1509.48731360 Ry
     ewald contribution        =   36058.50834445 Ry
     electric field correction =       0.00005638 Ry
     smearing contrib. (-TS)   =      -0.15965771 Ry

     total magnetization       =    21.45 Bohr mag/cell
     absolute magnetization    =    24.78 Bohr mag/cell

     convergence has been achieved in  13 iterations

     Forces acting on atoms (Ry/au):


     negative rho (up, down):  7.438E-04 6.144E-04
     atom    1 type  1   force =    -0.00131067   -0.00013247   -0.00094407
     atom    2 type  1   force =    -0.00074892    0.00067907   -0.00120825
     atom    3 type  1   force =    -0.00111849   -0.00001470    0.00041913
     atom    4 type  1   force =    -0.00048098    0.00003932   -0.00018649
     atom    5 type  1   force =    -0.00005235   -0.00032262    0.00068927
     atom    6 type  1   force =    -0.00042968    0.00024593   -0.00007040
     atom    7 type  1   force =    -0.00029053   -0.00006348   -0.00014852
     atom    8 type  1   force =    -0.00046768   -0.00013229   -0.00003197
     atom    9 type  1   force =    -0.00054769    0.00021186   -0.00027571
     atom   10 type  1   force =     0.00009231    0.00007050   -0.00004749
     atom   11 type  1   force =    -0.00009448   -0.00023348   -0.00007791
     atom   12 type  1   force =     0.00014110    0.00009003    0.00011013
     atom   13 type  1   force =    -0.00028924   -0.00005757    0.00034273
     atom   14 type  1   force =    -0.00028030   -0.00016168    0.00015124
     atom   15 type  1   force =    -0.00029385    0.00021921   -0.00108042
     atom   16 type  1   force =    -0.00060156    0.00020086   -0.00024490
     atom   17 type  1   force =    -0.00016142   -0.00018961   -0.00040690
     atom   18 type  1   force =    -0.00059060   -0.00003419   -0.00047316
     atom   19 type  1   force =     0.00297259   -0.00058503   -0.00164399
     atom   20 type  1   force =     0.00289739    0.00058602   -0.00183566
     atom   21 type  1   force =     0.00197085   -0.00000079   -0.00281110
     atom   22 type  1   force =     0.00424405   -0.00079838   -0.00047361
     atom   23 type  1   force =     0.00385197    0.00006669   -0.00175315
     atom   24 type  1   force =     0.00421568    0.00073384   -0.00058167
     atom   25 type  1   force =    -0.00259479   -0.00048357   -0.00997265
     atom   26 type  1   force =    -0.00257488    0.00059804   -0.01008622
     atom   27 type  1   force =    -0.00292579   -0.00010292   -0.00962455
     atom   28 type  1   force =    -0.00163525    0.00037390   -0.00988879
     atom   29 type  1   force =    -0.00213339    0.00006916   -0.01086394
     atom   30 type  1   force =    -0.00161013   -0.00044155   -0.00992377
     atom   31 type  1   force =    -0.00502939    0.00000253    0.00304741
     atom   32 type  1   force =    -0.00507976    0.00010176    0.00304580
     atom   33 type  1   force =    -0.00585313   -0.00009935    0.00309612
     atom   34 type  1   force =     0.00595346   -0.00022314    0.02117980
     atom   35 type  1   force =     0.00578263    0.00011941    0.02122138
     atom   36 type  1   force =     0.00596584    0.00010664    0.02119189
     atom   37 type  2   force =    -0.00089291   -0.00043796    0.00016043

     Total force =     0.048068     Total SCF correction =     0.002545
 !ASE

     Writing output data file calc.save
 
     init_run     :     42.53s CPU     51.32s WALL (       1 calls)
     electrons    :  60768.59s CPU  72971.96s WALL (      21 calls)
     update_pot   :     92.89s CPU     98.54s WALL (      20 calls)
     forces       :   1515.46s CPU   1563.94s WALL (      21 calls)

     Called by init_run:
     wfcinit      :     21.85s CPU     29.01s WALL (       1 calls)
     potinit      :      1.66s CPU      1.88s WALL (       1 calls)

     Called by electrons:
     c_bands      :  34376.18s CPU  43624.68s WALL (     665 calls)
     sum_band     :  16245.07s CPU  18490.90s WALL (     665 calls)
     v_of_rho     :    362.15s CPU    443.01s WALL (     686 calls)
     newd         :   9983.92s CPU  10596.38s WALL (     686 calls)
     mix_rho      :     78.66s CPU    100.13s WALL (     665 calls)

     Called by c_bands:
     init_us_2    :    208.19s CPU    227.65s WALL (   13520 calls)
     cegterg      :  32882.70s CPU  42062.77s WALL (    6650 calls)

     Called by *egterg:
     h_psi        :  19069.05s CPU  26412.20s WALL (   18993 calls)
     s_psi        :   2495.63s CPU   2613.67s WALL (   18993 calls)
     g_psi        :    109.90s CPU    111.86s WALL (   12333 calls)
     cdiaghg      :   4166.65s CPU   4257.50s WALL (   18783 calls)

     Called by h_psi:
     add_vuspsi   :   2512.70s CPU   2612.19s WALL (   18993 calls)

     General routines
     calbec       :   3799.69s CPU   3897.10s WALL (   25853 calls)
     fft          :    396.92s CPU    480.27s WALL (   21455 calls)
     ffts         :      5.56s CPU      8.03s WALL (    2702 calls)
     fftw         :  11314.10s CPU  20124.95s WALL ( 9974426 calls)
     interpolate  :     43.19s CPU     67.25s WALL (    2702 calls)
     davcio       :      0.01s CPU      0.43s WALL (      10 calls)
 
     Parallel routines
     fft_scatter  :   6869.82s CPU  12064.25s WALL ( 9998583 calls)
 
     PWSCF        :    17h25m CPU       20h50m WALL

 
   This run was terminated on:   6: 6:43  24Mar2018            

=------------------------------------------------------------------------------=
   JOB DONE.
=------------------------------------------------------------------------------=
