  python dir          : /home/vossj/suncat/lib/python2.7/site-packages/espresso
  espresso dir        : /home/vossj/suncat/esdld/espresso-dynpy-beef/bin
  pseudo dir          : /home/alatimer/bin/psp/esp_psp_w_gbrvRu/
  ase-espresso py git : ffa2778-git



     Program PWSCF v.5.1rc2 (svn rev. ) starts on 10Mar2017 at 15: 9:38 

     This program is part of the open-source Quantum ESPRESSO suite
     for quantum simulation of materials; please cite
         "P. Giannozzi et al., J. Phys.:Condens. Matter 21 395502 (2009);
          URL http://www.quantum-espresso.org", 
     in publications or presentations arising from this work. More details at
     http://www.quantum-espresso.org/quote

     Parallel version (MPI), running on    16 processors
     R & G space division:  proc/nbgrp/npool/nimage =      16
     Reading input from pw.inp
     Message from routine read_cards :
     DEPRECATED: no units specified in CELL_PARAMETERS card

     Current dimensions of program PWSCF are:
     Max number of different atomic species (ntypx) = 10
     Max number of k-points (npk) =  40000
     Max angular momentum in pseudopotentials (lmaxx) =  3
     Presently no symmetry can be used with electric field


     IMPORTANT: XC functional enforced from input :
     Exchange-correlation      = RPBE ( 1  4 28  4 0)
     Any further DFT definition will be discarded
     Please, verify this is what you really want

               file Ni.UPF: wavefunction(s)  3D renormalized

     Subspace diagonalization in iterative solution of the eigenvalue problem:
     a serial algorithm will be used

 
     Parallelization info
     --------------------
     sticks:   dense  smooth     PW     G-vecs:    dense   smooth      PW
     Min         386     154     42                68872    17389    2480
     Max         387     155     43                68885    17439    2491
     Sum        6181    2479    673              1102011   278611   39737
 
     Generating pointlists ...
     new r_m :   0.4125 (alat units)  0.7795 (a.u.) for type    1
     new r_m :   0.4125 (alat units)  0.7795 (a.u.) for type    2


     bravais-lattice index     =            0
     lattice parameter (alat)  =       1.8897  a.u.
     unit-cell volume          =    7046.4111 (a.u.)^3
     number of atoms/cell      =           37
     number of atomic types    =            2
     number of electrons       =       366.00
     number of Kohn-Sham states=          283
     kinetic-energy cutoff     =      44.0992  Ry
     charge density cutoff     =     440.9919  Ry
     convergence threshold     =      7.3E-07
     mixing beta               =       0.1000
     number of iterations used =           10  plain     mixing
     Exchange-correlation      = RPBE ( 1  4 28  4 0)
     nstep                     =           50


     celldm(1)=   1.889726  celldm(2)=   0.000000  celldm(3)=   0.000000
     celldm(4)=   0.000000  celldm(5)=   0.000000  celldm(6)=   0.000000

     crystal axes: (cart. coord. in units of alat)
               a(1) = (   7.548011   0.000000   0.000000 )  
               a(2) = (  -3.774005   6.536769   0.000000 )  
               a(3) = (   0.000000   0.000000  21.162925 )  

     reciprocal axes: (cart. coord. in units 2 pi/alat)
               b(1) = (  0.132485  0.076490  0.000000 )  
               b(2) = (  0.000000  0.152981  0.000000 )  
               b(3) = (  0.000000  0.000000  0.047252 )  


     PseudoPot. # 1 for Ni read from file:
     /home/alatimer/bin/psp/esp_psp_w_gbrvRu/Ni.UPF
     MD5 check sum: 8b2449ee0060d9c33484ccd47bb60870
     Pseudo is Ultrasoft + core correction, Zval = 10.0
     Generated using "atomic" code by A. Dal Corso  v.5.0.2 svn rev. 9415
     Using radial grid of 1195 points,  6 beta functions with: 
                l(1) =   0
                l(2) =   0
                l(3) =   1
                l(4) =   1
                l(5) =   2
                l(6) =   2
     Q(r) pseudized with 0 coefficients 


     PseudoPot. # 2 for  O read from file:
     /home/alatimer/bin/psp/esp_psp_w_gbrvRu/O.UPF
     MD5 check sum: e057bbcf3229fb5d8c36c0c92f9568b4
     Pseudo is Ultrasoft + core correction, Zval =  6.0
     Generated using "atomic" code by A. Dal Corso  v.5.0.2 svn rev. 9415
     Using radial grid of 1095 points,  4 beta functions with: 
                l(1) =   0
                l(2) =   0
                l(3) =   1
                l(4) =   1
     Q(r) pseudized with 0 coefficients 


     atomic species   valence    mass     pseudopotential
        Ni1           10.00    58.69340     Ni( 1.00)
        O1             6.00    15.99940      O( 1.00)

     Starting magnetic structure 
     atomic species   magnetization
        Ni1          0.300
        O1           0.500

     No symmetry found



   Cartesian axes

     site n.     atom                  positions (alat units)
         1           Ni1 tau(   1) = (   0.0000000   0.0000000   7.5000000  )
         2           Ni1 tau(   2) = (   1.2580018   0.7263077   9.5543084  )
         3           Ni1 tau(   3) = (   0.0000000   1.4526154  11.6086168  )
         4           Ni1 tau(   4) = (   1.2580018   2.1789231  13.6629252  )
         5           Ni1 tau(   5) = (  -1.2580018   2.1789231   7.5000000  )
         6           Ni1 tau(   6) = (   0.0000000   2.9052308   9.5543084  )
         7           Ni1 tau(   7) = (  -1.2580018   3.6315385  11.6086168  )
         8           Ni1 tau(   8) = (  -0.0000000   4.3578462  13.6629252  )
         9           Ni1 tau(   9) = (  -2.5160037   4.3578462   7.5000000  )
        10           Ni1 tau(  10) = (  -1.2580018   5.0841539   9.5543084  )
        11           Ni1 tau(  11) = (  -2.5160037   5.8104616  11.6086168  )
        12           Ni1 tau(  12) = (  -1.2580018   6.5367693  13.6629252  )
        13           Ni1 tau(  13) = (   2.5160037   0.0000000   7.5000000  )
        14           Ni1 tau(  14) = (   3.7740055   0.7263077   9.5543084  )
        15           Ni1 tau(  15) = (   2.5160037   1.4526154  11.6086168  )
        16           Ni1 tau(  16) = (   3.7740055   2.1789231  13.6629252  )
        17           Ni1 tau(  17) = (   1.2580018   2.1789231   7.5000000  )
        18           Ni1 tau(  18) = (   2.5160037   2.9052308   9.5543084  )
        19           Ni1 tau(  19) = (   1.2580018   3.6315385  11.6086168  )
        20           Ni1 tau(  20) = (   2.5160037   4.3578462  13.6629252  )
        21           Ni1 tau(  21) = (  -0.0000000   4.3578462   7.5000000  )
        22           Ni1 tau(  22) = (   1.2580018   5.0841539   9.5543084  )
        23           Ni1 tau(  23) = (  -0.0000000   5.8104616  11.6086168  )
        24           Ni1 tau(  24) = (   1.2580018   6.5367693  13.6629252  )
        25           Ni1 tau(  25) = (   5.0320073   0.0000000   7.5000000  )
        26           Ni1 tau(  26) = (   6.2900092   0.7263077   9.5543084  )
        27           Ni1 tau(  27) = (   5.0320073   1.4526154  11.6086168  )
        28           Ni1 tau(  28) = (   6.2900092   2.1789231  13.6629252  )
        29           Ni1 tau(  29) = (   3.7740055   2.1789231   7.5000000  )
        30           Ni1 tau(  30) = (   5.0320073   2.9052308   9.5543084  )
        31           Ni1 tau(  31) = (   3.7740055   3.6315385  11.6086168  )
        32           Ni1 tau(  32) = (   5.0320073   4.3578462  13.6629252  )
        33           Ni1 tau(  33) = (   2.5160037   4.3578462   7.5000000  )
        34           Ni1 tau(  34) = (   3.7740055   5.0841539   9.5543084  )
        35           Ni1 tau(  35) = (   2.5160037   5.8104616  11.6086168  )
        36           Ni1 tau(  36) = (   3.7740055   6.5367693  13.6629252  )
        37           O1  tau(  37) = (   2.5160037   2.9052308  15.0629252  )

     number of k points=    10  Fermi-Dirac smearing, width (Ry)=  0.0073
                       cart. coord. in units 2pi/alat
        k(    1) = (   0.0000000   0.0000000   0.0000000), wk =   0.1111111
        k(    2) = (   0.0000000   0.0509936   0.0000000), wk =   0.2222222
        k(    3) = (   0.0441617   0.0254968   0.0000000), wk =   0.2222222
        k(    4) = (   0.0441617   0.0764904   0.0000000), wk =   0.2222222
        k(    5) = (   0.0441617  -0.0254968   0.0000000), wk =   0.2222222
        k(    6) = (   0.0000000   0.0000000   0.0000000), wk =   0.1111111
        k(    7) = (   0.0000000   0.0509936   0.0000000), wk =   0.2222222
        k(    8) = (   0.0441617   0.0254968   0.0000000), wk =   0.2222222
        k(    9) = (   0.0441617   0.0764904   0.0000000), wk =   0.2222222
        k(   10) = (   0.0441617  -0.0254968   0.0000000), wk =   0.2222222

     Dense  grid:  1102011 G-vectors     FFT dimensions: (  96,  96, 270)

     Smooth grid:   278611 G-vectors     FFT dimensions: (  64,  64, 180)

     Largest allocated arrays     est. size (Mb)     dimensions
        Kohn-Sham Wavefunctions         9.43 Mb     (    2183,  283)
        NL pseudopotentials            21.85 Mb     (    2183,  656)
        Each V/rho on FFT grid          4.78 Mb     (  156672,   2)
        Each G-vector array             0.53 Mb     (   68874)
        G-vector shells                 0.19 Mb     (   24563)
     Largest temporary arrays     est. size (Mb)     dimensions
        Auxiliary wavefunctions        37.71 Mb     (    2183, 1132)
        Each subspace H/S matrix       19.55 Mb     (    1132, 1132)
        Each <psi_i|beta_j> matrix      2.83 Mb     (     656,  283)
        Arrays for rho mixing          23.91 Mb     (  156672,   10)

     Check: negative/imaginary core charge=   -0.000003    0.000000

     Initial potential from superposition of free atoms
     Check: negative starting charge=(component1):   -0.000376
     Check: negative starting charge=(component2):   -0.000197

     starting charge  365.99096, renormalised to  366.00000

     negative rho (up, down):  3.760E-04 1.975E-04
 
     Adding external electric field

     Computed dipole along edir(3) : 
        Dipole               -0.0012 Ry au,         -0.0031 Debye
        Dipole field         -0.0000 Ry au
 
        Potential amp.        0.0002 Ry
        Total length         38.9923 bohr
 
 
     Adding external electric field

     Computed dipole along edir(3) : 
        Dipole               -0.0012 Ry au,         -0.0031 Debye
        Dipole field         -0.0000 Ry au
 
        Potential amp.        0.0002 Ry
        Total length         38.9923 bohr
 
     Starting wfc are  328 randomized atomic wfcs

     total cpu time spent up to now is       31.8 secs

     Self-consistent Calculation

     iteration #  1     ecut=    44.10 Ry     beta=0.10
     Davidson diagonalization with overlap
     ethr =  1.00E-02,  avg # of iterations =  6.9

     negative rho (up, down):  3.389E-04 1.736E-04
 
     Adding external electric field

     Computed dipole along edir(3) : 
        Dipole               -0.0844 Ry au,         -0.2145 Debye
        Dipole field         -0.0002 Ry au
 
        Potential amp.        0.0117 Ry
        Total length         38.9923 bohr
 
 
     Adding external electric field

     Computed dipole along edir(3) : 
        Dipole               -0.0844 Ry au,         -0.2145 Debye
        Dipole field         -0.0002 Ry au
 
        Potential amp.        0.0117 Ry
        Total length         38.9923 bohr
 
 
     Magnetic moment per site:
     atom:    1    charge:    3.9489    magn:    1.1262    constr:    0.0000
     atom:    2    charge:    3.9680    magn:    1.1117    constr:    0.0000
     atom:    3    charge:    3.9700    magn:    1.1095    constr:    0.0000
     atom:    4    charge:    3.9456    magn:    1.1314    constr:    0.0000
     atom:    5    charge:    3.9489    magn:    1.1262    constr:    0.0000
     atom:    6    charge:    3.9680    magn:    1.1117    constr:    0.0000
     atom:    7    charge:    3.9681    magn:    1.1118    constr:    0.0000
     atom:    8    charge:    3.9491    magn:    1.1266    constr:    0.0000
     atom:    9    charge:    3.9491    magn:    1.1262    constr:    0.0000
     atom:   10    charge:    3.9679    magn:    1.1117    constr:    0.0000
     atom:   11    charge:    3.9681    magn:    1.1118    constr:    0.0000
     atom:   12    charge:    3.9491    magn:    1.1266    constr:    0.0000
     atom:   13    charge:    3.9491    magn:    1.1262    constr:    0.0000
     atom:   14    charge:    3.9680    magn:    1.1117    constr:    0.0000
     atom:   15    charge:    3.9682    magn:    1.1118    constr:    0.0000
     atom:   16    charge:    3.9456    magn:    1.1314    constr:    0.0000
     atom:   17    charge:    3.9490    magn:    1.1266    constr:    0.0000
     atom:   18    charge:    3.9676    magn:    1.1123    constr:    0.0000
     atom:   19    charge:    3.9682    magn:    1.1119    constr:    0.0000
     atom:   20    charge:    3.9456    magn:    1.1314    constr:    0.0000
     atom:   21    charge:    3.9491    magn:    1.1262    constr:    0.0000
     atom:   22    charge:    3.9680    magn:    1.1117    constr:    0.0000
     atom:   23    charge:    3.9681    magn:    1.1118    constr:    0.0000
     atom:   24    charge:    3.9487    magn:    1.1272    constr:    0.0000
     atom:   25    charge:    3.9489    magn:    1.1262    constr:    0.0000
     atom:   26    charge:    3.9680    magn:    1.1113    constr:    0.0000
     atom:   27    charge:    3.9700    magn:    1.1096    constr:    0.0000
     atom:   28    charge:    3.9487    magn:    1.1272    constr:    0.0000
     atom:   29    charge:    3.9490    magn:    1.1266    constr:    0.0000
     atom:   30    charge:    3.9680    magn:    1.1117    constr:    0.0000
     atom:   31    charge:    3.9682    magn:    1.1119    constr:    0.0000
     atom:   32    charge:    3.9491    magn:    1.1266    constr:    0.0000
     atom:   33    charge:    3.9490    magn:    1.1266    constr:    0.0000
     atom:   34    charge:    3.9680    magn:    1.1117    constr:    0.0000
     atom:   35    charge:    3.9700    magn:    1.1095    constr:    0.0000
     atom:   36    charge:    3.9487    magn:    1.1272    constr:    0.0000
     atom:   37    charge:    1.9993    magn:    0.9482    constr:    0.0000

     total cpu time spent up to now is      155.2 secs

     total energy              =   -3654.02024453 Ry
     Harris-Foulkes estimate   =   -3654.89818374 Ry
     estimated scf accuracy    <       9.68444530 Ry

     total magnetization       =    37.67 Bohr mag/cell
     absolute magnetization    =    37.74 Bohr mag/cell

     iteration #  2     ecut=    44.10 Ry     beta=0.10
     Davidson diagonalization with overlap
     ethr =  2.65E-03,  avg # of iterations =  2.9

     negative rho (up, down):  3.357E-04 1.982E-04
 
     Adding external electric field

     Computed dipole along edir(3) : 
        Dipole               -0.1035 Ry au,         -0.2632 Debye
        Dipole field         -0.0002 Ry au
 
        Potential amp.        0.0144 Ry
        Total length         38.9923 bohr
 
 
     Adding external electric field

     Computed dipole along edir(3) : 
        Dipole               -0.1035 Ry au,         -0.2632 Debye
        Dipole field         -0.0002 Ry au
 
        Potential amp.        0.0144 Ry
        Total length         38.9923 bohr
 
 
     Magnetic moment per site:
     atom:    1    charge:    3.9626    magn:    1.1029    constr:    0.0000
     atom:    2    charge:    3.9569    magn:    1.1072    constr:    0.0000
     atom:    3    charge:    3.9564    magn:    1.1070    constr:    0.0000
     atom:    4    charge:    3.9587    magn:    1.1094    constr:    0.0000
     atom:    5    charge:    3.9626    magn:    1.1029    constr:    0.0000
     atom:    6    charge:    3.9569    magn:    1.1072    constr:    0.0000
     atom:    7    charge:    3.9561    magn:    1.1082    constr:    0.0000
     atom:    8    charge:    3.9628    magn:    1.1033    constr:    0.0000
     atom:    9    charge:    3.9628    magn:    1.1029    constr:    0.0000
     atom:   10    charge:    3.9570    magn:    1.1070    constr:    0.0000
     atom:   11    charge:    3.9561    magn:    1.1082    constr:    0.0000
     atom:   12    charge:    3.9628    magn:    1.1033    constr:    0.0000
     atom:   13    charge:    3.9628    magn:    1.1029    constr:    0.0000
     atom:   14    charge:    3.9569    magn:    1.1072    constr:    0.0000
     atom:   15    charge:    3.9562    magn:    1.1081    constr:    0.0000
     atom:   16    charge:    3.9587    magn:    1.1094    constr:    0.0000
     atom:   17    charge:    3.9628    magn:    1.1032    constr:    0.0000
     atom:   18    charge:    3.9566    magn:    1.1076    constr:    0.0000
     atom:   19    charge:    3.9562    magn:    1.1081    constr:    0.0000
     atom:   20    charge:    3.9587    magn:    1.1094    constr:    0.0000
     atom:   21    charge:    3.9628    magn:    1.1029    constr:    0.0000
     atom:   22    charge:    3.9569    magn:    1.1072    constr:    0.0000
     atom:   23    charge:    3.9561    magn:    1.1082    constr:    0.0000
     atom:   24    charge:    3.9623    magn:    1.1040    constr:    0.0000
     atom:   25    charge:    3.9626    magn:    1.1029    constr:    0.0000
     atom:   26    charge:    3.9566    magn:    1.1070    constr:    0.0000
     atom:   27    charge:    3.9564    magn:    1.1070    constr:    0.0000
     atom:   28    charge:    3.9623    magn:    1.1040    constr:    0.0000
     atom:   29    charge:    3.9628    magn:    1.1032    constr:    0.0000
     atom:   30    charge:    3.9569    magn:    1.1072    constr:    0.0000
     atom:   31    charge:    3.9562    magn:    1.1081    constr:    0.0000
     atom:   32    charge:    3.9628    magn:    1.1033    constr:    0.0000
     atom:   33    charge:    3.9628    magn:    1.1032    constr:    0.0000
     atom:   34    charge:    3.9569    magn:    1.1072    constr:    0.0000
     atom:   35    charge:    3.9564    magn:    1.1070    constr:    0.0000
     atom:   36    charge:    3.9623    magn:    1.1040    constr:    0.0000
     atom:   37    charge:    2.0069    magn:    0.9321    constr:    0.0000

     total cpu time spent up to now is      231.5 secs

     total energy              =   -3653.94744129 Ry
     Harris-Foulkes estimate   =   -3656.18026457 Ry
     estimated scf accuracy    <      51.79294481 Ry

     total magnetization       =    39.74 Bohr mag/cell
     absolute magnetization    =    39.98 Bohr mag/cell

     iteration #  3     ecut=    44.10 Ry     beta=0.10
     Davidson diagonalization with overlap
     ethr =  2.65E-03,  avg # of iterations =  1.1

     negative rho (up, down):  3.368E-04 1.948E-04
 
     Adding external electric field

     Computed dipole along edir(3) : 
        Dipole               -0.2638 Ry au,         -0.6705 Debye
        Dipole field         -0.0005 Ry au
 
        Potential amp.        0.0367 Ry
        Total length         38.9923 bohr
 
 
     Adding external electric field

     Computed dipole along edir(3) : 
        Dipole               -0.2638 Ry au,         -0.6705 Debye
        Dipole field         -0.0005 Ry au
 
        Potential amp.        0.0367 Ry
        Total length         38.9923 bohr
 
 
     Magnetic moment per site:
     atom:    1    charge:    3.9799    magn:    0.9850    constr:    0.0000
     atom:    2    charge:    3.9580    magn:    0.9986    constr:    0.0000
     atom:    3    charge:    3.9631    magn:    0.9928    constr:    0.0000
     atom:    4    charge:    3.9746    magn:    0.9976    constr:    0.0000
     atom:    5    charge:    3.9800    magn:    0.9850    constr:    0.0000
     atom:    6    charge:    3.9580    magn:    0.9986    constr:    0.0000
     atom:    7    charge:    3.9607    magn:    0.9975    constr:    0.0000
     atom:    8    charge:    3.9753    magn:    0.9903    constr:    0.0000
     atom:    9    charge:    3.9794    magn:    0.9856    constr:    0.0000
     atom:   10    charge:    3.9571    magn:    0.9990    constr:    0.0000
     atom:   11    charge:    3.9607    magn:    0.9975    constr:    0.0000
     atom:   12    charge:    3.9753    magn:    0.9903    constr:    0.0000
     atom:   13    charge:    3.9794    magn:    0.9856    constr:    0.0000
     atom:   14    charge:    3.9580    magn:    0.9985    constr:    0.0000
     atom:   15    charge:    3.9616    magn:    0.9961    constr:    0.0000
     atom:   16    charge:    3.9746    magn:    0.9976    constr:    0.0000
     atom:   17    charge:    3.9796    magn:    0.9861    constr:    0.0000
     atom:   18    charge:    3.9581    magn:    0.9985    constr:    0.0000
     atom:   19    charge:    3.9616    magn:    0.9961    constr:    0.0000
     atom:   20    charge:    3.9746    magn:    0.9976    constr:    0.0000
     atom:   21    charge:    3.9794    magn:    0.9856    constr:    0.0000
     atom:   22    charge:    3.9580    magn:    0.9986    constr:    0.0000
     atom:   23    charge:    3.9607    magn:    0.9975    constr:    0.0000
     atom:   24    charge:    3.9738    magn:    0.9926    constr:    0.0000
     atom:   25    charge:    3.9800    magn:    0.9850    constr:    0.0000
     atom:   26    charge:    3.9595    magn:    0.9967    constr:    0.0000
     atom:   27    charge:    3.9631    magn:    0.9928    constr:    0.0000
     atom:   28    charge:    3.9738    magn:    0.9926    constr:    0.0000
     atom:   29    charge:    3.9796    magn:    0.9861    constr:    0.0000
     atom:   30    charge:    3.9580    magn:    0.9986    constr:    0.0000
     atom:   31    charge:    3.9616    magn:    0.9961    constr:    0.0000
     atom:   32    charge:    3.9753    magn:    0.9903    constr:    0.0000
     atom:   33    charge:    3.9796    magn:    0.9861    constr:    0.0000
     atom:   34    charge:    3.9579    magn:    0.9986    constr:    0.0000
     atom:   35    charge:    3.9631    magn:    0.9928    constr:    0.0000
     atom:   36    charge:    3.9738    magn:    0.9926    constr:    0.0000
     atom:   37    charge:    2.0343    magn:    0.8233    constr:    0.0000

     total cpu time spent up to now is      299.9 secs

     total energy              =   -3655.31363629 Ry
     Harris-Foulkes estimate   =   -3654.95697912 Ry
     estimated scf accuracy    <       2.67169362 Ry

     total magnetization       =    38.59 Bohr mag/cell
     absolute magnetization    =    38.75 Bohr mag/cell

     iteration #  4     ecut=    44.10 Ry     beta=0.10
     Davidson diagonalization with overlap
     ethr =  7.30E-04,  avg # of iterations =  7.7

     negative rho (up, down):  3.335E-04 1.940E-04
 
     Adding external electric field

     Computed dipole along edir(3) : 
        Dipole               -0.0694 Ry au,         -0.1764 Debye
        Dipole field         -0.0001 Ry au
 
        Potential amp.        0.0097 Ry
        Total length         38.9923 bohr
 
 
     Adding external electric field

     Computed dipole along edir(3) : 
        Dipole               -0.0694 Ry au,         -0.1764 Debye
        Dipole field         -0.0001 Ry au
 
        Potential amp.        0.0097 Ry
        Total length         38.9923 bohr
 
 
     Magnetic moment per site:
     atom:    1    charge:    3.9787    magn:    0.9544    constr:    0.0000
     atom:    2    charge:    3.9619    magn:    0.9644    constr:    0.0000
     atom:    3    charge:    3.9599    magn:    0.9639    constr:    0.0000
     atom:    4    charge:    3.9677    magn:    0.9732    constr:    0.0000
     atom:    5    charge:    3.9787    magn:    0.9544    constr:    0.0000
     atom:    6    charge:    3.9619    magn:    0.9644    constr:    0.0000
     atom:    7    charge:    3.9613    magn:    0.9661    constr:    0.0000
     atom:    8    charge:    3.9786    magn:    0.9567    constr:    0.0000
     atom:    9    charge:    3.9796    magn:    0.9537    constr:    0.0000
     atom:   10    charge:    3.9626    magn:    0.9636    constr:    0.0000
     atom:   11    charge:    3.9613    magn:    0.9661    constr:    0.0000
     atom:   12    charge:    3.9786    magn:    0.9567    constr:    0.0000
     atom:   13    charge:    3.9796    magn:    0.9537    constr:    0.0000
     atom:   14    charge:    3.9619    magn:    0.9644    constr:    0.0000
     atom:   15    charge:    3.9589    magn:    0.9674    constr:    0.0000
     atom:   16    charge:    3.9677    magn:    0.9732    constr:    0.0000
     atom:   17    charge:    3.9792    magn:    0.9548    constr:    0.0000
     atom:   18    charge:    3.9614    magn:    0.9648    constr:    0.0000
     atom:   19    charge:    3.9589    magn:    0.9674    constr:    0.0000
     atom:   20    charge:    3.9677    magn:    0.9732    constr:    0.0000
     atom:   21    charge:    3.9796    magn:    0.9537    constr:    0.0000
     atom:   22    charge:    3.9619    magn:    0.9645    constr:    0.0000
     atom:   23    charge:    3.9613    magn:    0.9661    constr:    0.0000
     atom:   24    charge:    3.9777    magn:    0.9588    constr:    0.0000
     atom:   25    charge:    3.9787    magn:    0.9544    constr:    0.0000
     atom:   26    charge:    3.9611    magn:    0.9641    constr:    0.0000
     atom:   27    charge:    3.9599    magn:    0.9639    constr:    0.0000
     atom:   28    charge:    3.9777    magn:    0.9588    constr:    0.0000
     atom:   29    charge:    3.9792    magn:    0.9548    constr:    0.0000
     atom:   30    charge:    3.9619    magn:    0.9644    constr:    0.0000
     atom:   31    charge:    3.9589    magn:    0.9674    constr:    0.0000
     atom:   32    charge:    3.9786    magn:    0.9567    constr:    0.0000
     atom:   33    charge:    3.9792    magn:    0.9548    constr:    0.0000
     atom:   34    charge:    3.9619    magn:    0.9644    constr:    0.0000
     atom:   35    charge:    3.9599    magn:    0.9639    constr:    0.0000
     atom:   36    charge:    3.9777    magn:    0.9588    constr:    0.0000
     atom:   37    charge:    2.0391    magn:    0.7909    constr:    0.0000

     total cpu time spent up to now is      396.5 secs

     total energy              =   -3655.49034086 Ry
     Harris-Foulkes estimate   =   -3655.42564096 Ry
     estimated scf accuracy    <       2.29146123 Ry

     total magnetization       =    38.19 Bohr mag/cell
     absolute magnetization    =    38.54 Bohr mag/cell

     iteration #  5     ecut=    44.10 Ry     beta=0.10
     Davidson diagonalization with overlap
     ethr =  6.26E-04,  avg # of iterations =  2.3

     negative rho (up, down):  3.307E-04 1.986E-04
 
     Adding external electric field

     Computed dipole along edir(3) : 
        Dipole               -0.3915 Ry au,         -0.9951 Debye
        Dipole field         -0.0007 Ry au
 
        Potential amp.        0.0544 Ry
        Total length         38.9923 bohr
 
 
     Adding external electric field

     Computed dipole along edir(3) : 
        Dipole               -0.3915 Ry au,         -0.9951 Debye
        Dipole field         -0.0007 Ry au
 
        Potential amp.        0.0544 Ry
        Total length         38.9923 bohr
 
 
     Magnetic moment per site:
     atom:    1    charge:    3.9768    magn:    0.9454    constr:    0.0000
     atom:    2    charge:    3.9621    magn:    0.9540    constr:    0.0000
     atom:    3    charge:    3.9600    magn:    0.9533    constr:    0.0000
     atom:    4    charge:    3.9675    magn:    0.9633    constr:    0.0000
     atom:    5    charge:    3.9768    magn:    0.9454    constr:    0.0000
     atom:    6    charge:    3.9621    magn:    0.9540    constr:    0.0000
     atom:    7    charge:    3.9619    magn:    0.9552    constr:    0.0000
     atom:    8    charge:    3.9805    magn:    0.9447    constr:    0.0000
     atom:    9    charge:    3.9778    magn:    0.9446    constr:    0.0000
     atom:   10    charge:    3.9629    magn:    0.9531    constr:    0.0000
     atom:   11    charge:    3.9619    magn:    0.9552    constr:    0.0000
     atom:   12    charge:    3.9804    magn:    0.9447    constr:    0.0000
     atom:   13    charge:    3.9778    magn:    0.9446    constr:    0.0000
     atom:   14    charge:    3.9621    magn:    0.9540    constr:    0.0000
     atom:   15    charge:    3.9593    magn:    0.9567    constr:    0.0000
     atom:   16    charge:    3.9675    magn:    0.9633    constr:    0.0000
     atom:   17    charge:    3.9774    magn:    0.9458    constr:    0.0000
     atom:   18    charge:    3.9616    magn:    0.9544    constr:    0.0000
     atom:   19    charge:    3.9593    magn:    0.9567    constr:    0.0000
     atom:   20    charge:    3.9675    magn:    0.9633    constr:    0.0000
     atom:   21    charge:    3.9778    magn:    0.9446    constr:    0.0000
     atom:   22    charge:    3.9621    magn:    0.9540    constr:    0.0000
     atom:   23    charge:    3.9619    magn:    0.9552    constr:    0.0000
     atom:   24    charge:    3.9797    magn:    0.9468    constr:    0.0000
     atom:   25    charge:    3.9768    magn:    0.9454    constr:    0.0000
     atom:   26    charge:    3.9610    magn:    0.9538    constr:    0.0000
     atom:   27    charge:    3.9599    magn:    0.9533    constr:    0.0000
     atom:   28    charge:    3.9796    magn:    0.9467    constr:    0.0000
     atom:   29    charge:    3.9774    magn:    0.9458    constr:    0.0000
     atom:   30    charge:    3.9621    magn:    0.9540    constr:    0.0000
     atom:   31    charge:    3.9593    magn:    0.9567    constr:    0.0000
     atom:   32    charge:    3.9804    magn:    0.9447    constr:    0.0000
     atom:   33    charge:    3.9774    magn:    0.9458    constr:    0.0000
     atom:   34    charge:    3.9621    magn:    0.9540    constr:    0.0000
     atom:   35    charge:    3.9600    magn:    0.9533    constr:    0.0000
     atom:   36    charge:    3.9796    magn:    0.9468    constr:    0.0000
     atom:   37    charge:    2.0405    magn:    0.7800    constr:    0.0000

     total cpu time spent up to now is      470.4 secs

     total energy              =   -3655.47008735 Ry
     Harris-Foulkes estimate   =   -3655.60493258 Ry
     estimated scf accuracy    <      14.88442298 Ry

     total magnetization       =    37.89 Bohr mag/cell
     absolute magnetization    =    38.40 Bohr mag/cell

     iteration #  6     ecut=    44.10 Ry     beta=0.10
     Davidson diagonalization with overlap
     ethr =  6.26E-04,  avg # of iterations =  1.0

     negative rho (up, down):  3.338E-04 2.140E-04
 
     Adding external electric field

     Computed dipole along edir(3) : 
        Dipole               -0.2538 Ry au,         -0.6450 Debye
        Dipole field         -0.0005 Ry au
 
        Potential amp.        0.0353 Ry
        Total length         38.9923 bohr
 
 
     Adding external electric field

     Computed dipole along edir(3) : 
        Dipole               -0.2538 Ry au,         -0.6450 Debye
        Dipole field         -0.0005 Ry au
 
        Potential amp.        0.0353 Ry
        Total length         38.9923 bohr
 
 
     Magnetic moment per site:
     atom:    1    charge:    3.9709    magn:    0.8340    constr:    0.0000
     atom:    2    charge:    3.9647    magn:    0.8392    constr:    0.0000
     atom:    3    charge:    3.9626    magn:    0.8373    constr:    0.0000
     atom:    4    charge:    3.9673    magn:    0.8543    constr:    0.0000
     atom:    5    charge:    3.9709    magn:    0.8340    constr:    0.0000
     atom:    6    charge:    3.9647    magn:    0.8392    constr:    0.0000
     atom:    7    charge:    3.9608    magn:    0.8439    constr:    0.0000
     atom:    8    charge:    3.9734    magn:    0.8360    constr:    0.0000
     atom:    9    charge:    3.9694    magn:    0.8349    constr:    0.0000
     atom:   10    charge:    3.9627    magn:    0.8406    constr:    0.0000
     atom:   11    charge:    3.9608    magn:    0.8438    constr:    0.0000
     atom:   12    charge:    3.9734    magn:    0.8360    constr:    0.0000
     atom:   13    charge:    3.9694    magn:    0.8349    constr:    0.0000
     atom:   14    charge:    3.9647    magn:    0.8392    constr:    0.0000
     atom:   15    charge:    3.9661    magn:    0.8391    constr:    0.0000
     atom:   16    charge:    3.9673    magn:    0.8543    constr:    0.0000
     atom:   17    charge:    3.9715    magn:    0.8343    constr:    0.0000
     atom:   18    charge:    3.9661    magn:    0.8375    constr:    0.0000
     atom:   19    charge:    3.9661    magn:    0.8391    constr:    0.0000
     atom:   20    charge:    3.9673    magn:    0.8543    constr:    0.0000
     atom:   21    charge:    3.9694    magn:    0.8349    constr:    0.0000
     atom:   22    charge:    3.9647    magn:    0.8392    constr:    0.0000
     atom:   23    charge:    3.9608    magn:    0.8438    constr:    0.0000
     atom:   24    charge:    3.9745    magn:    0.8369    constr:    0.0000
     atom:   25    charge:    3.9709    magn:    0.8340    constr:    0.0000
     atom:   26    charge:    3.9645    magn:    0.8371    constr:    0.0000
     atom:   27    charge:    3.9626    magn:    0.8373    constr:    0.0000
     atom:   28    charge:    3.9745    magn:    0.8369    constr:    0.0000
     atom:   29    charge:    3.9715    magn:    0.8343    constr:    0.0000
     atom:   30    charge:    3.9647    magn:    0.8392    constr:    0.0000
     atom:   31    charge:    3.9661    magn:    0.8391    constr:    0.0000
     atom:   32    charge:    3.9735    magn:    0.8360    constr:    0.0000
     atom:   33    charge:    3.9715    magn:    0.8343    constr:    0.0000
     atom:   34    charge:    3.9647    magn:    0.8392    constr:    0.0000
     atom:   35    charge:    3.9626    magn:    0.8373    constr:    0.0000
     atom:   36    charge:    3.9745    magn:    0.8370    constr:    0.0000
     atom:   37    charge:    2.0507    magn:    0.6617    constr:    0.0000

     total cpu time spent up to now is      538.6 secs

     total energy              =   -3655.92781547 Ry
     Harris-Foulkes estimate   =   -3655.60703573 Ry
     estimated scf accuracy    <       5.18609348 Ry

     total magnetization       =    37.87 Bohr mag/cell
     absolute magnetization    =    38.36 Bohr mag/cell

     iteration #  7     ecut=    44.10 Ry     beta=0.10
     Davidson diagonalization with overlap
     ethr =  6.26E-04,  avg # of iterations =  1.0

     negative rho (up, down):  3.375E-04 2.386E-04
 
     Adding external electric field

     Computed dipole along edir(3) : 
        Dipole               -0.2041 Ry au,         -0.5187 Debye
        Dipole field         -0.0004 Ry au
 
        Potential amp.        0.0284 Ry
        Total length         38.9923 bohr
 
 
     Adding external electric field

     Computed dipole along edir(3) : 
        Dipole               -0.2041 Ry au,         -0.5187 Debye
        Dipole field         -0.0004 Ry au
 
        Potential amp.        0.0284 Ry
        Total length         38.9923 bohr
 
 
     Magnetic moment per site:
     atom:    1    charge:    3.9697    magn:    0.7692    constr:    0.0000
     atom:    2    charge:    3.9634    magn:    0.7760    constr:    0.0000
     atom:    3    charge:    3.9659    magn:    0.7696    constr:    0.0000
     atom:    4    charge:    3.9663    magn:    0.7923    constr:    0.0000
     atom:    5    charge:    3.9697    magn:    0.7692    constr:    0.0000
     atom:    6    charge:    3.9634    magn:    0.7760    constr:    0.0000
     atom:    7    charge:    3.9667    magn:    0.7753    constr:    0.0000
     atom:    8    charge:    3.9751    magn:    0.7694    constr:    0.0000
     atom:    9    charge:    3.9705    magn:    0.7682    constr:    0.0000
     atom:   10    charge:    3.9661    magn:    0.7737    constr:    0.0000
     atom:   11    charge:    3.9667    magn:    0.7753    constr:    0.0000
     atom:   12    charge:    3.9751    magn:    0.7694    constr:    0.0000
     atom:   13    charge:    3.9705    magn:    0.7682    constr:    0.0000
     atom:   14    charge:    3.9633    magn:    0.7760    constr:    0.0000
     atom:   15    charge:    3.9638    magn:    0.7767    constr:    0.0000
     atom:   16    charge:    3.9663    magn:    0.7923    constr:    0.0000
     atom:   17    charge:    3.9689    magn:    0.7704    constr:    0.0000
     atom:   18    charge:    3.9605    magn:    0.7777    constr:    0.0000
     atom:   19    charge:    3.9638    magn:    0.7767    constr:    0.0000
     atom:   20    charge:    3.9663    magn:    0.7923    constr:    0.0000
     atom:   21    charge:    3.9705    magn:    0.7682    constr:    0.0000
     atom:   22    charge:    3.9634    magn:    0.7760    constr:    0.0000
     atom:   23    charge:    3.9667    magn:    0.7753    constr:    0.0000
     atom:   24    charge:    3.9714    magn:    0.7744    constr:    0.0000
     atom:   25    charge:    3.9697    magn:    0.7692    constr:    0.0000
     atom:   26    charge:    3.9632    magn:    0.7727    constr:    0.0000
     atom:   27    charge:    3.9659    magn:    0.7696    constr:    0.0000
     atom:   28    charge:    3.9714    magn:    0.7744    constr:    0.0000
     atom:   29    charge:    3.9689    magn:    0.7704    constr:    0.0000
     atom:   30    charge:    3.9634    magn:    0.7760    constr:    0.0000
     atom:   31    charge:    3.9638    magn:    0.7767    constr:    0.0000
     atom:   32    charge:    3.9751    magn:    0.7694    constr:    0.0000
     atom:   33    charge:    3.9689    magn:    0.7704    constr:    0.0000
     atom:   34    charge:    3.9634    magn:    0.7760    constr:    0.0000
     atom:   35    charge:    3.9659    magn:    0.7696    constr:    0.0000
     atom:   36    charge:    3.9714    magn:    0.7744    constr:    0.0000
     atom:   37    charge:    2.0504    magn:    0.5944    constr:    0.0000

     total cpu time spent up to now is      606.9 secs

     total energy              =   -3656.13282897 Ry
     Harris-Foulkes estimate   =   -3655.99782365 Ry
     estimated scf accuracy    <       1.51328739 Ry

     total magnetization       =    35.71 Bohr mag/cell
     absolute magnetization    =    36.69 Bohr mag/cell

     iteration #  8     ecut=    44.10 Ry     beta=0.10
     Davidson diagonalization with overlap
     ethr =  4.13E-04,  avg # of iterations =  5.7

     negative rho (up, down):  3.981E-04 4.290E-04
 
     Adding external electric field

     Computed dipole along edir(3) : 
        Dipole               -0.1872 Ry au,         -0.4759 Debye
        Dipole field         -0.0003 Ry au
 
        Potential amp.        0.0260 Ry
        Total length         38.9923 bohr
 
 
     Adding external electric field

     Computed dipole along edir(3) : 
        Dipole               -0.1872 Ry au,         -0.4759 Debye
        Dipole field         -0.0003 Ry au
 
        Potential amp.        0.0260 Ry
        Total length         38.9923 bohr
 
 
     Magnetic moment per site:
     atom:    1    charge:    3.9665    magn:    0.5829    constr:    0.0000
     atom:    2    charge:    3.9657    magn:    0.5893    constr:    0.0000
     atom:    3    charge:    3.9676    magn:    0.5793    constr:    0.0000
     atom:    4    charge:    3.9695    magn:    0.6073    constr:    0.0000
     atom:    5    charge:    3.9665    magn:    0.5829    constr:    0.0000
     atom:    6    charge:    3.9657    magn:    0.5893    constr:    0.0000
     atom:    7    charge:    3.9661    magn:    0.5907    constr:    0.0000
     atom:    8    charge:    3.9760    magn:    0.5806    constr:    0.0000
     atom:    9    charge:    3.9677    magn:    0.5813    constr:    0.0000
     atom:   10    charge:    3.9623    magn:    0.5916    constr:    0.0000
     atom:   11    charge:    3.9661    magn:    0.5907    constr:    0.0000
     atom:   12    charge:    3.9760    magn:    0.5806    constr:    0.0000
     atom:   13    charge:    3.9678    magn:    0.5813    constr:    0.0000
     atom:   14    charge:    3.9657    magn:    0.5893    constr:    0.0000
     atom:   15    charge:    3.9641    magn:    0.5913    constr:    0.0000
     atom:   16    charge:    3.9695    magn:    0.6073    constr:    0.0000
     atom:   17    charge:    3.9706    magn:    0.5796    constr:    0.0000
     atom:   18    charge:    3.9695    magn:    0.5864    constr:    0.0000
     atom:   19    charge:    3.9641    magn:    0.5913    constr:    0.0000
     atom:   20    charge:    3.9695    magn:    0.6073    constr:    0.0000
     atom:   21    charge:    3.9677    magn:    0.5813    constr:    0.0000
     atom:   22    charge:    3.9657    magn:    0.5894    constr:    0.0000
     atom:   23    charge:    3.9661    magn:    0.5907    constr:    0.0000
     atom:   24    charge:    3.9713    magn:    0.5878    constr:    0.0000
     atom:   25    charge:    3.9665    magn:    0.5829    constr:    0.0000
     atom:   26    charge:    3.9649    magn:    0.5818    constr:    0.0000
     atom:   27    charge:    3.9677    magn:    0.5792    constr:    0.0000
     atom:   28    charge:    3.9713    magn:    0.5878    constr:    0.0000
     atom:   29    charge:    3.9706    magn:    0.5795    constr:    0.0000
     atom:   30    charge:    3.9657    magn:    0.5894    constr:    0.0000
     atom:   31    charge:    3.9641    magn:    0.5913    constr:    0.0000
     atom:   32    charge:    3.9759    magn:    0.5806    constr:    0.0000
     atom:   33    charge:    3.9706    magn:    0.5796    constr:    0.0000
     atom:   34    charge:    3.9657    magn:    0.5894    constr:    0.0000
     atom:   35    charge:    3.9677    magn:    0.5792    constr:    0.0000
     atom:   36    charge:    3.9713    magn:    0.5878    constr:    0.0000
     atom:   37    charge:    2.0388    magn:    0.3986    constr:    0.0000

     total cpu time spent up to now is      694.8 secs

     total energy              =   -3656.43414714 Ry
     Harris-Foulkes estimate   =   -3656.16974581 Ry
     estimated scf accuracy    <       0.77444152 Ry

     total magnetization       =    33.96 Bohr mag/cell
     absolute magnetization    =    35.44 Bohr mag/cell

     iteration #  9     ecut=    44.10 Ry     beta=0.10
     Davidson diagonalization with overlap
     ethr =  2.12E-04,  avg # of iterations =  7.2

     negative rho (up, down):  4.170E-04 4.781E-04
 
     Adding external electric field

     Computed dipole along edir(3) : 
        Dipole               -0.2122 Ry au,         -0.5395 Debye
        Dipole field         -0.0004 Ry au
 
        Potential amp.        0.0295 Ry
        Total length         38.9923 bohr
 
 
     Adding external electric field

     Computed dipole along edir(3) : 
        Dipole               -0.2122 Ry au,         -0.5395 Debye
        Dipole field         -0.0004 Ry au
 
        Potential amp.        0.0295 Ry
        Total length         38.9923 bohr
 
 
     Magnetic moment per site:
     atom:    1    charge:    3.9677    magn:    0.5136    constr:    0.0000
     atom:    2    charge:    3.9683    magn:    0.5208    constr:    0.0000
     atom:    3    charge:    3.9668    magn:    0.5112    constr:    0.0000
     atom:    4    charge:    3.9702    magn:    0.5391    constr:    0.0000
     atom:    5    charge:    3.9677    magn:    0.5136    constr:    0.0000
     atom:    6    charge:    3.9683    magn:    0.5208    constr:    0.0000
     atom:    7    charge:    3.9675    magn:    0.5228    constr:    0.0000
     atom:    8    charge:    3.9733    magn:    0.5142    constr:    0.0000
     atom:    9    charge:    3.9675    magn:    0.5128    constr:    0.0000
     atom:   10    charge:    3.9677    magn:    0.5212    constr:    0.0000
     atom:   11    charge:    3.9675    magn:    0.5227    constr:    0.0000
     atom:   12    charge:    3.9733    magn:    0.5142    constr:    0.0000
     atom:   13    charge:    3.9675    magn:    0.5129    constr:    0.0000
     atom:   14    charge:    3.9683    magn:    0.5208    constr:    0.0000
     atom:   15    charge:    3.9673    magn:    0.5225    constr:    0.0000
     atom:   16    charge:    3.9702    magn:    0.5391    constr:    0.0000
     atom:   17    charge:    3.9649    magn:    0.5147    constr:    0.0000
     atom:   18    charge:    3.9685    magn:    0.5202    constr:    0.0000
     atom:   19    charge:    3.9673    magn:    0.5225    constr:    0.0000
     atom:   20    charge:    3.9702    magn:    0.5391    constr:    0.0000
     atom:   21    charge:    3.9675    magn:    0.5129    constr:    0.0000
     atom:   22    charge:    3.9683    magn:    0.5208    constr:    0.0000
     atom:   23    charge:    3.9675    magn:    0.5228    constr:    0.0000
     atom:   24    charge:    3.9700    magn:    0.5213    constr:    0.0000
     atom:   25    charge:    3.9677    magn:    0.5137    constr:    0.0000
     atom:   26    charge:    3.9687    magn:    0.5105    constr:    0.0000
     atom:   27    charge:    3.9669    magn:    0.5112    constr:    0.0000
     atom:   28    charge:    3.9700    magn:    0.5213    constr:    0.0000
     atom:   29    charge:    3.9649    magn:    0.5147    constr:    0.0000
     atom:   30    charge:    3.9683    magn:    0.5208    constr:    0.0000
     atom:   31    charge:    3.9673    magn:    0.5225    constr:    0.0000
     atom:   32    charge:    3.9733    magn:    0.5142    constr:    0.0000
     atom:   33    charge:    3.9649    magn:    0.5147    constr:    0.0000
     atom:   34    charge:    3.9683    magn:    0.5208    constr:    0.0000
     atom:   35    charge:    3.9668    magn:    0.5112    constr:    0.0000
     atom:   36    charge:    3.9700    magn:    0.5213    constr:    0.0000
     atom:   37    charge:    2.0322    magn:    0.3252    constr:    0.0000

     total cpu time spent up to now is      792.5 secs

     total energy              =   -3656.55811671 Ry
     Harris-Foulkes estimate   =   -3656.54108137 Ry
     estimated scf accuracy    <       2.02051128 Ry

     total magnetization       =    28.10 Bohr mag/cell
     absolute magnetization    =    31.46 Bohr mag/cell

     iteration # 10     ecut=    44.10 Ry     beta=0.10
     Davidson diagonalization with overlap
     ethr =  2.12E-04,  avg # of iterations =  1.0

     negative rho (up, down):  4.235E-04 4.950E-04
 
     Adding external electric field

     Computed dipole along edir(3) : 
        Dipole               -0.2277 Ry au,         -0.5788 Debye
        Dipole field         -0.0004 Ry au
 
        Potential amp.        0.0317 Ry
        Total length         38.9923 bohr
 
 
     Adding external electric field

     Computed dipole along edir(3) : 
        Dipole               -0.2277 Ry au,         -0.5788 Debye
        Dipole field         -0.0004 Ry au
 
        Potential amp.        0.0317 Ry
        Total length         38.9923 bohr
 
 
     Magnetic moment per site:
     atom:    1    charge:    3.9656    magn:    0.4670    constr:    0.0000
     atom:    2    charge:    3.9700    magn:    0.4729    constr:    0.0000
     atom:    3    charge:    3.9685    magn:    0.4621    constr:    0.0000
     atom:    4    charge:    3.9681    magn:    0.4911    constr:    0.0000
     atom:    5    charge:    3.9656    magn:    0.4671    constr:    0.0000
     atom:    6    charge:    3.9700    magn:    0.4729    constr:    0.0000
     atom:    7    charge:    3.9701    magn:    0.4741    constr:    0.0000
     atom:    8    charge:    3.9717    magn:    0.4674    constr:    0.0000
     atom:    9    charge:    3.9656    magn:    0.4659    constr:    0.0000
     atom:   10    charge:    3.9711    magn:    0.4720    constr:    0.0000
     atom:   11    charge:    3.9701    magn:    0.4740    constr:    0.0000
     atom:   12    charge:    3.9717    magn:    0.4674    constr:    0.0000
     atom:   13    charge:    3.9656    magn:    0.4659    constr:    0.0000
     atom:   14    charge:    3.9700    magn:    0.4729    constr:    0.0000
     atom:   15    charge:    3.9705    magn:    0.4739    constr:    0.0000
     atom:   16    charge:    3.9681    magn:    0.4911    constr:    0.0000
     atom:   17    charge:    3.9666    magn:    0.4652    constr:    0.0000
     atom:   18    charge:    3.9696    magn:    0.4726    constr:    0.0000
     atom:   19    charge:    3.9705    magn:    0.4739    constr:    0.0000
     atom:   20    charge:    3.9681    magn:    0.4911    constr:    0.0000
     atom:   21    charge:    3.9656    magn:    0.4659    constr:    0.0000
     atom:   22    charge:    3.9700    magn:    0.4729    constr:    0.0000
     atom:   23    charge:    3.9701    magn:    0.4740    constr:    0.0000
     atom:   24    charge:    3.9681    magn:    0.4754    constr:    0.0000
     atom:   25    charge:    3.9656    magn:    0.4671    constr:    0.0000
     atom:   26    charge:    3.9706    magn:    0.4610    constr:    0.0000
     atom:   27    charge:    3.9685    magn:    0.4621    constr:    0.0000
     atom:   28    charge:    3.9681    magn:    0.4754    constr:    0.0000
     atom:   29    charge:    3.9666    magn:    0.4652    constr:    0.0000
     atom:   30    charge:    3.9700    magn:    0.4729    constr:    0.0000
     atom:   31    charge:    3.9705    magn:    0.4739    constr:    0.0000
     atom:   32    charge:    3.9717    magn:    0.4674    constr:    0.0000
     atom:   33    charge:    3.9666    magn:    0.4652    constr:    0.0000
     atom:   34    charge:    3.9700    magn:    0.4729    constr:    0.0000
     atom:   35    charge:    3.9685    magn:    0.4621    constr:    0.0000
     atom:   36    charge:    3.9681    magn:    0.4755    constr:    0.0000
     atom:   37    charge:    2.0249    magn:    0.2713    constr:    0.0000

     total cpu time spent up to now is      860.7 secs

     total energy              =   -3656.57030851 Ry
     Harris-Foulkes estimate   =   -3656.58109896 Ry
     estimated scf accuracy    <       0.97717308 Ry

     total magnetization       =    25.81 Bohr mag/cell
     absolute magnetization    =    29.89 Bohr mag/cell

     iteration # 11     ecut=    44.10 Ry     beta=0.10
     Davidson diagonalization with overlap
     ethr =  2.12E-04,  avg # of iterations =  1.0

     negative rho (up, down):  4.188E-04 4.868E-04
 
     Adding external electric field

     Computed dipole along edir(3) : 
        Dipole               -0.2521 Ry au,         -0.6408 Debye
        Dipole field         -0.0004 Ry au
 
        Potential amp.        0.0351 Ry
        Total length         38.9923 bohr
 
 
     Adding external electric field

     Computed dipole along edir(3) : 
        Dipole               -0.2521 Ry au,         -0.6408 Debye
        Dipole field         -0.0004 Ry au
 
        Potential amp.        0.0351 Ry
        Total length         38.9923 bohr
 
 
     Magnetic moment per site:
     atom:    1    charge:    3.9671    magn:    0.4353    constr:    0.0000
     atom:    2    charge:    3.9712    magn:    0.4415    constr:    0.0000
     atom:    3    charge:    3.9711    magn:    0.4287    constr:    0.0000
     atom:    4    charge:    3.9670    magn:    0.4588    constr:    0.0000
     atom:    5    charge:    3.9671    magn:    0.4353    constr:    0.0000
     atom:    6    charge:    3.9712    magn:    0.4416    constr:    0.0000
     atom:    7    charge:    3.9706    magn:    0.4427    constr:    0.0000
     atom:    8    charge:    3.9714    magn:    0.4370    constr:    0.0000
     atom:    9    charge:    3.9668    magn:    0.4341    constr:    0.0000
     atom:   10    charge:    3.9703    magn:    0.4414    constr:    0.0000
     atom:   11    charge:    3.9706    magn:    0.4427    constr:    0.0000
     atom:   12    charge:    3.9714    magn:    0.4371    constr:    0.0000
     atom:   13    charge:    3.9669    magn:    0.4341    constr:    0.0000
     atom:   14    charge:    3.9712    magn:    0.4416    constr:    0.0000
     atom:   15    charge:    3.9706    magn:    0.4435    constr:    0.0000
     atom:   16    charge:    3.9670    magn:    0.4588    constr:    0.0000
     atom:   17    charge:    3.9666    magn:    0.4341    constr:    0.0000
     atom:   18    charge:    3.9717    magn:    0.4409    constr:    0.0000
     atom:   19    charge:    3.9706    magn:    0.4435    constr:    0.0000
     atom:   20    charge:    3.9670    magn:    0.4588    constr:    0.0000
     atom:   21    charge:    3.9669    magn:    0.4341    constr:    0.0000
     atom:   22    charge:    3.9712    magn:    0.4416    constr:    0.0000
     atom:   23    charge:    3.9706    magn:    0.4427    constr:    0.0000
     atom:   24    charge:    3.9680    magn:    0.4456    constr:    0.0000
     atom:   25    charge:    3.9671    magn:    0.4353    constr:    0.0000
     atom:   26    charge:    3.9729    magn:    0.4277    constr:    0.0000
     atom:   27    charge:    3.9711    magn:    0.4287    constr:    0.0000
     atom:   28    charge:    3.9680    magn:    0.4456    constr:    0.0000
     atom:   29    charge:    3.9666    magn:    0.4341    constr:    0.0000
     atom:   30    charge:    3.9712    magn:    0.4416    constr:    0.0000
     atom:   31    charge:    3.9706    magn:    0.4435    constr:    0.0000
     atom:   32    charge:    3.9714    magn:    0.4370    constr:    0.0000
     atom:   33    charge:    3.9666    magn:    0.4341    constr:    0.0000
     atom:   34    charge:    3.9712    magn:    0.4415    constr:    0.0000
     atom:   35    charge:    3.9711    magn:    0.4287    constr:    0.0000
     atom:   36    charge:    3.9680    magn:    0.4456    constr:    0.0000
     atom:   37    charge:    2.0184    magn:    0.2345    constr:    0.0000

     total cpu time spent up to now is      928.9 secs

     total energy              =   -3656.58247803 Ry
     Harris-Foulkes estimate   =   -3656.58496446 Ry
     estimated scf accuracy    <       0.12804306 Ry

     total magnetization       =    24.25 Bohr mag/cell
     absolute magnetization    =    28.82 Bohr mag/cell

     iteration # 12     ecut=    44.10 Ry     beta=0.10
     Davidson diagonalization with overlap
     ethr =  3.50E-05,  avg # of iterations =  3.9

     negative rho (up, down):  4.073E-04 4.649E-04
 
     Adding external electric field

     Computed dipole along edir(3) : 
        Dipole               -0.2852 Ry au,         -0.7249 Debye
        Dipole field         -0.0005 Ry au
 
        Potential amp.        0.0397 Ry
        Total length         38.9923 bohr
 
 
     Adding external electric field

     Computed dipole along edir(3) : 
        Dipole               -0.2852 Ry au,         -0.7249 Debye
        Dipole field         -0.0005 Ry au
 
        Potential amp.        0.0397 Ry
        Total length         38.9923 bohr
 
 
     Magnetic moment per site:
     atom:    1    charge:    3.9684    magn:    0.4128    constr:    0.0000
     atom:    2    charge:    3.9720    magn:    0.4187    constr:    0.0000
     atom:    3    charge:    3.9705    magn:    0.4053    constr:    0.0000
     atom:    4    charge:    3.9677    magn:    0.4333    constr:    0.0000
     atom:    5    charge:    3.9684    magn:    0.4128    constr:    0.0000
     atom:    6    charge:    3.9720    magn:    0.4187    constr:    0.0000
     atom:    7    charge:    3.9716    magn:    0.4191    constr:    0.0000
     atom:    8    charge:    3.9723    magn:    0.4153    constr:    0.0000
     atom:    9    charge:    3.9695    magn:    0.4103    constr:    0.0000
     atom:   10    charge:    3.9717    magn:    0.4178    constr:    0.0000
     atom:   11    charge:    3.9716    magn:    0.4191    constr:    0.0000
     atom:   12    charge:    3.9723    magn:    0.4153    constr:    0.0000
     atom:   13    charge:    3.9695    magn:    0.4104    constr:    0.0000
     atom:   14    charge:    3.9720    magn:    0.4187    constr:    0.0000
     atom:   15    charge:    3.9712    magn:    0.4213    constr:    0.0000
     atom:   16    charge:    3.9677    magn:    0.4333    constr:    0.0000
     atom:   17    charge:    3.9687    magn:    0.4108    constr:    0.0000
     atom:   18    charge:    3.9737    magn:    0.4176    constr:    0.0000
     atom:   19    charge:    3.9712    magn:    0.4213    constr:    0.0000
     atom:   20    charge:    3.9677    magn:    0.4333    constr:    0.0000
     atom:   21    charge:    3.9695    magn:    0.4103    constr:    0.0000
     atom:   22    charge:    3.9720    magn:    0.4187    constr:    0.0000
     atom:   23    charge:    3.9716    magn:    0.4191    constr:    0.0000
     atom:   24    charge:    3.9678    magn:    0.4257    constr:    0.0000
     atom:   25    charge:    3.9684    magn:    0.4128    constr:    0.0000
     atom:   26    charge:    3.9710    magn:    0.4053    constr:    0.0000
     atom:   27    charge:    3.9705    magn:    0.4053    constr:    0.0000
     atom:   28    charge:    3.9678    magn:    0.4257    constr:    0.0000
     atom:   29    charge:    3.9687    magn:    0.4108    constr:    0.0000
     atom:   30    charge:    3.9720    magn:    0.4187    constr:    0.0000
     atom:   31    charge:    3.9712    magn:    0.4213    constr:    0.0000
     atom:   32    charge:    3.9723    magn:    0.4153    constr:    0.0000
     atom:   33    charge:    3.9687    magn:    0.4108    constr:    0.0000
     atom:   34    charge:    3.9720    magn:    0.4187    constr:    0.0000
     atom:   35    charge:    3.9705    magn:    0.4053    constr:    0.0000
     atom:   36    charge:    3.9678    magn:    0.4257    constr:    0.0000
     atom:   37    charge:    2.0125    magn:    0.2051    constr:    0.0000

     total cpu time spent up to now is     1009.3 secs

     total energy              =   -3656.58098147 Ry
     Harris-Foulkes estimate   =   -3656.58667577 Ry
     estimated scf accuracy    <       0.06049288 Ry

     total magnetization       =    23.39 Bohr mag/cell
     absolute magnetization    =    28.19 Bohr mag/cell

     iteration # 13     ecut=    44.10 Ry     beta=0.10
     Davidson diagonalization with overlap
     ethr =  1.65E-05,  avg # of iterations =  2.5

     negative rho (up, down):  3.920E-04 4.331E-04
 
     Adding external electric field

     Computed dipole along edir(3) : 
        Dipole               -0.2924 Ry au,         -0.7431 Debye
        Dipole field         -0.0005 Ry au
 
        Potential amp.        0.0407 Ry
        Total length         38.9923 bohr
 
 
     Adding external electric field

     Computed dipole along edir(3) : 
        Dipole               -0.2924 Ry au,         -0.7431 Debye
        Dipole field         -0.0005 Ry au
 
        Potential amp.        0.0407 Ry
        Total length         38.9923 bohr
 
 
     Magnetic moment per site:
     atom:    1    charge:    3.9695    magn:    0.4050    constr:    0.0000
     atom:    2    charge:    3.9720    magn:    0.4115    constr:    0.0000
     atom:    3    charge:    3.9707    magn:    0.3973    constr:    0.0000
     atom:    4    charge:    3.9674    magn:    0.4248    constr:    0.0000
     atom:    5    charge:    3.9695    magn:    0.4050    constr:    0.0000
     atom:    6    charge:    3.9720    magn:    0.4115    constr:    0.0000
     atom:    7    charge:    3.9719    magn:    0.4115    constr:    0.0000
     atom:    8    charge:    3.9716    magn:    0.4092    constr:    0.0000
     atom:    9    charge:    3.9690    magn:    0.4035    constr:    0.0000
     atom:   10    charge:    3.9726    magn:    0.4099    constr:    0.0000
     atom:   11    charge:    3.9719    magn:    0.4115    constr:    0.0000
     atom:   12    charge:    3.9716    magn:    0.4092    constr:    0.0000
     atom:   13    charge:    3.9690    magn:    0.4035    constr:    0.0000
     atom:   14    charge:    3.9720    magn:    0.4115    constr:    0.0000
     atom:   15    charge:    3.9716    magn:    0.4142    constr:    0.0000
     atom:   16    charge:    3.9674    magn:    0.4248    constr:    0.0000
     atom:   17    charge:    3.9699    magn:    0.4029    constr:    0.0000
     atom:   18    charge:    3.9716    magn:    0.4118    constr:    0.0000
     atom:   19    charge:    3.9716    magn:    0.4142    constr:    0.0000
     atom:   20    charge:    3.9674    magn:    0.4248    constr:    0.0000
     atom:   21    charge:    3.9690    magn:    0.4035    constr:    0.0000
     atom:   22    charge:    3.9720    magn:    0.4115    constr:    0.0000
     atom:   23    charge:    3.9719    magn:    0.4115    constr:    0.0000
     atom:   24    charge:    3.9692    magn:    0.4186    constr:    0.0000
     atom:   25    charge:    3.9695    magn:    0.4050    constr:    0.0000
     atom:   26    charge:    3.9731    magn:    0.3963    constr:    0.0000
     atom:   27    charge:    3.9707    magn:    0.3973    constr:    0.0000
     atom:   28    charge:    3.9692    magn:    0.4186    constr:    0.0000
     atom:   29    charge:    3.9699    magn:    0.4029    constr:    0.0000
     atom:   30    charge:    3.9720    magn:    0.4115    constr:    0.0000
     atom:   31    charge:    3.9716    magn:    0.4142    constr:    0.0000
     atom:   32    charge:    3.9716    magn:    0.4092    constr:    0.0000
     atom:   33    charge:    3.9699    magn:    0.4029    constr:    0.0000
     atom:   34    charge:    3.9720    magn:    0.4115    constr:    0.0000
     atom:   35    charge:    3.9707    magn:    0.3973    constr:    0.0000
     atom:   36    charge:    3.9692    magn:    0.4186    constr:    0.0000
     atom:   37    charge:    2.0105    magn:    0.1944    constr:    0.0000

     total cpu time spent up to now is     1083.3 secs

     total energy              =   -3656.58095622 Ry
     Harris-Foulkes estimate   =   -3656.58483676 Ry
     estimated scf accuracy    <       0.06370739 Ry

     total magnetization       =    22.84 Bohr mag/cell
     absolute magnetization    =    27.72 Bohr mag/cell

     iteration # 14     ecut=    44.10 Ry     beta=0.10
     Davidson diagonalization with overlap
     ethr =  1.65E-05,  avg # of iterations =  1.0

     negative rho (up, down):  3.714E-04 3.876E-04
 
     Adding external electric field

     Computed dipole along edir(3) : 
        Dipole               -0.2983 Ry au,         -0.7582 Debye
        Dipole field         -0.0005 Ry au
 
        Potential amp.        0.0415 Ry
        Total length         38.9923 bohr
 
 
     Adding external electric field

     Computed dipole along edir(3) : 
        Dipole               -0.2983 Ry au,         -0.7582 Debye
        Dipole field         -0.0005 Ry au
 
        Potential amp.        0.0415 Ry
        Total length         38.9923 bohr
 
 
     Magnetic moment per site:
     atom:    1    charge:    3.9704    magn:    0.4052    constr:    0.0000
     atom:    2    charge:    3.9712    magn:    0.4115    constr:    0.0000
     atom:    3    charge:    3.9704    magn:    0.3960    constr:    0.0000
     atom:    4    charge:    3.9675    magn:    0.4211    constr:    0.0000
     atom:    5    charge:    3.9704    magn:    0.4052    constr:    0.0000
     atom:    6    charge:    3.9712    magn:    0.4115    constr:    0.0000
     atom:    7    charge:    3.9711    magn:    0.4110    constr:    0.0000
     atom:    8    charge:    3.9732    magn:    0.4105    constr:    0.0000
     atom:    9    charge:    3.9710    magn:    0.4026    constr:    0.0000
     atom:   10    charge:    3.9713    magn:    0.4099    constr:    0.0000
     atom:   11    charge:    3.9711    magn:    0.4109    constr:    0.0000
     atom:   12    charge:    3.9732    magn:    0.4106    constr:    0.0000
     atom:   13    charge:    3.9710    magn:    0.4026    constr:    0.0000
     atom:   14    charge:    3.9712    magn:    0.4115    constr:    0.0000
     atom:   15    charge:    3.9712    magn:    0.4149    constr:    0.0000
     atom:   16    charge:    3.9675    magn:    0.4211    constr:    0.0000
     atom:   17    charge:    3.9708    magn:    0.4029    constr:    0.0000
     atom:   18    charge:    3.9713    magn:    0.4123    constr:    0.0000
     atom:   19    charge:    3.9712    magn:    0.4149    constr:    0.0000
     atom:   20    charge:    3.9675    magn:    0.4211    constr:    0.0000
     atom:   21    charge:    3.9710    magn:    0.4026    constr:    0.0000
     atom:   22    charge:    3.9712    magn:    0.4115    constr:    0.0000
     atom:   23    charge:    3.9711    magn:    0.4109    constr:    0.0000
     atom:   24    charge:    3.9704    magn:    0.4209    constr:    0.0000
     atom:   25    charge:    3.9704    magn:    0.4052    constr:    0.0000
     atom:   26    charge:    3.9725    magn:    0.3958    constr:    0.0000
     atom:   27    charge:    3.9704    magn:    0.3960    constr:    0.0000
     atom:   28    charge:    3.9704    magn:    0.4209    constr:    0.0000
     atom:   29    charge:    3.9708    magn:    0.4029    constr:    0.0000
     atom:   30    charge:    3.9712    magn:    0.4115    constr:    0.0000
     atom:   31    charge:    3.9712    magn:    0.4149    constr:    0.0000
     atom:   32    charge:    3.9732    magn:    0.4105    constr:    0.0000
     atom:   33    charge:    3.9708    magn:    0.4029    constr:    0.0000
     atom:   34    charge:    3.9712    magn:    0.4115    constr:    0.0000
     atom:   35    charge:    3.9704    magn:    0.3960    constr:    0.0000
     atom:   36    charge:    3.9704    magn:    0.4209    constr:    0.0000
     atom:   37    charge:    2.0095    magn:    0.1869    constr:    0.0000

     total cpu time spent up to now is     1151.5 secs

     total energy              =   -3656.58284675 Ry
     Harris-Foulkes estimate   =   -3656.58313929 Ry
     estimated scf accuracy    <       0.01944235 Ry

     total magnetization       =    22.69 Bohr mag/cell
     absolute magnetization    =    27.57 Bohr mag/cell

     iteration # 15     ecut=    44.10 Ry     beta=0.10
     Davidson diagonalization with overlap
     ethr =  5.31E-06,  avg # of iterations =  5.2

     negative rho (up, down):  3.594E-04 3.612E-04
 
     Adding external electric field

     Computed dipole along edir(3) : 
        Dipole               -0.2986 Ry au,         -0.7589 Debye
        Dipole field         -0.0005 Ry au
 
        Potential amp.        0.0415 Ry
        Total length         38.9923 bohr
 
 
     Adding external electric field

     Computed dipole along edir(3) : 
        Dipole               -0.2986 Ry au,         -0.7589 Debye
        Dipole field         -0.0005 Ry au
 
        Potential amp.        0.0415 Ry
        Total length         38.9923 bohr
 
 
     Magnetic moment per site:
     atom:    1    charge:    3.9711    magn:    0.4010    constr:    0.0000
     atom:    2    charge:    3.9711    magn:    0.4075    constr:    0.0000
     atom:    3    charge:    3.9702    magn:    0.3914    constr:    0.0000
     atom:    4    charge:    3.9676    magn:    0.4155    constr:    0.0000
     atom:    5    charge:    3.9711    magn:    0.4010    constr:    0.0000
     atom:    6    charge:    3.9711    magn:    0.4075    constr:    0.0000
     atom:    7    charge:    3.9711    magn:    0.4066    constr:    0.0000
     atom:    8    charge:    3.9735    magn:    0.4074    constr:    0.0000
     atom:    9    charge:    3.9710    magn:    0.3986    constr:    0.0000
     atom:   10    charge:    3.9712    magn:    0.4058    constr:    0.0000
     atom:   11    charge:    3.9711    magn:    0.4065    constr:    0.0000
     atom:   12    charge:    3.9735    magn:    0.4074    constr:    0.0000
     atom:   13    charge:    3.9710    magn:    0.3986    constr:    0.0000
     atom:   14    charge:    3.9711    magn:    0.4075    constr:    0.0000
     atom:   15    charge:    3.9705    magn:    0.4117    constr:    0.0000
     atom:   16    charge:    3.9676    magn:    0.4155    constr:    0.0000
     atom:   17    charge:    3.9712    magn:    0.3988    constr:    0.0000
     atom:   18    charge:    3.9716    magn:    0.4084    constr:    0.0000
     atom:   19    charge:    3.9705    magn:    0.4117    constr:    0.0000
     atom:   20    charge:    3.9676    magn:    0.4155    constr:    0.0000
     atom:   21    charge:    3.9710    magn:    0.3986    constr:    0.0000
     atom:   22    charge:    3.9711    magn:    0.4075    constr:    0.0000
     atom:   23    charge:    3.9711    magn:    0.4066    constr:    0.0000
     atom:   24    charge:    3.9711    magn:    0.4178    constr:    0.0000
     atom:   25    charge:    3.9711    magn:    0.4011    constr:    0.0000
     atom:   26    charge:    3.9714    magn:    0.3920    constr:    0.0000
     atom:   27    charge:    3.9702    magn:    0.3914    constr:    0.0000
     atom:   28    charge:    3.9711    magn:    0.4178    constr:    0.0000
     atom:   29    charge:    3.9712    magn:    0.3988    constr:    0.0000
     atom:   30    charge:    3.9711    magn:    0.4075    constr:    0.0000
     atom:   31    charge:    3.9705    magn:    0.4117    constr:    0.0000
     atom:   32    charge:    3.9735    magn:    0.4074    constr:    0.0000
     atom:   33    charge:    3.9712    magn:    0.3988    constr:    0.0000
     atom:   34    charge:    3.9711    magn:    0.4075    constr:    0.0000
     atom:   35    charge:    3.9702    magn:    0.3914    constr:    0.0000
     atom:   36    charge:    3.9711    magn:    0.4178    constr:    0.0000
     atom:   37    charge:    2.0088    magn:    0.1794    constr:    0.0000

     total cpu time spent up to now is     1239.6 secs

     total energy              =   -3656.58374746 Ry
     Harris-Foulkes estimate   =   -3656.58373470 Ry
     estimated scf accuracy    <       0.00746614 Ry

     total magnetization       =    22.75 Bohr mag/cell
     absolute magnetization    =    27.48 Bohr mag/cell

     iteration # 16     ecut=    44.10 Ry     beta=0.10
     Davidson diagonalization with overlap
     ethr =  2.04E-06,  avg # of iterations =  1.8

     negative rho (up, down):  3.508E-04 3.383E-04
 
     Adding external electric field

     Computed dipole along edir(3) : 
        Dipole               -0.2857 Ry au,         -0.7263 Debye
        Dipole field         -0.0005 Ry au
 
        Potential amp.        0.0397 Ry
        Total length         38.9923 bohr
 
 
     Adding external electric field

     Computed dipole along edir(3) : 
        Dipole               -0.2857 Ry au,         -0.7263 Debye
        Dipole field         -0.0005 Ry au
 
        Potential amp.        0.0397 Ry
        Total length         38.9923 bohr
 
 
     Magnetic moment per site:
     atom:    1    charge:    3.9714    magn:    0.3917    constr:    0.0000
     atom:    2    charge:    3.9699    magn:    0.3982    constr:    0.0000
     atom:    3    charge:    3.9693    magn:    0.3802    constr:    0.0000
     atom:    4    charge:    3.9680    magn:    0.4013    constr:    0.0000
     atom:    5    charge:    3.9714    magn:    0.3917    constr:    0.0000
     atom:    6    charge:    3.9699    magn:    0.3982    constr:    0.0000
     atom:    7    charge:    3.9699    magn:    0.3964    constr:    0.0000
     atom:    8    charge:    3.9747    magn:    0.3999    constr:    0.0000
     atom:    9    charge:    3.9717    magn:    0.3884    constr:    0.0000
     atom:   10    charge:    3.9700    magn:    0.3960    constr:    0.0000
     atom:   11    charge:    3.9699    magn:    0.3964    constr:    0.0000
     atom:   12    charge:    3.9747    magn:    0.3999    constr:    0.0000
     atom:   13    charge:    3.9717    magn:    0.3884    constr:    0.0000
     atom:   14    charge:    3.9699    magn:    0.3982    constr:    0.0000
     atom:   15    charge:    3.9698    magn:    0.4034    constr:    0.0000
     atom:   16    charge:    3.9680    magn:    0.4012    constr:    0.0000
     atom:   17    charge:    3.9717    magn:    0.3891    constr:    0.0000
     atom:   18    charge:    3.9701    magn:    0.4003    constr:    0.0000
     atom:   19    charge:    3.9698    magn:    0.4034    constr:    0.0000
     atom:   20    charge:    3.9680    magn:    0.4012    constr:    0.0000
     atom:   21    charge:    3.9717    magn:    0.3884    constr:    0.0000
     atom:   22    charge:    3.9699    magn:    0.3982    constr:    0.0000
     atom:   23    charge:    3.9699    magn:    0.3964    constr:    0.0000
     atom:   24    charge:    3.9725    magn:    0.4109    constr:    0.0000
     atom:   25    charge:    3.9714    magn:    0.3917    constr:    0.0000
     atom:   26    charge:    3.9705    magn:    0.3818    constr:    0.0000
     atom:   27    charge:    3.9693    magn:    0.3802    constr:    0.0000
     atom:   28    charge:    3.9725    magn:    0.4109    constr:    0.0000
     atom:   29    charge:    3.9717    magn:    0.3891    constr:    0.0000
     atom:   30    charge:    3.9699    magn:    0.3982    constr:    0.0000
     atom:   31    charge:    3.9698    magn:    0.4034    constr:    0.0000
     atom:   32    charge:    3.9747    magn:    0.3999    constr:    0.0000
     atom:   33    charge:    3.9717    magn:    0.3891    constr:    0.0000
     atom:   34    charge:    3.9699    magn:    0.3982    constr:    0.0000
     atom:   35    charge:    3.9693    magn:    0.3802    constr:    0.0000
     atom:   36    charge:    3.9725    magn:    0.4109    constr:    0.0000
     atom:   37    charge:    2.0095    magn:    0.1599    constr:    0.0000

     total cpu time spent up to now is     1311.0 secs

     total energy              =   -3656.58466498 Ry
     Harris-Foulkes estimate   =   -3656.58403039 Ry
     estimated scf accuracy    <       0.00533535 Ry

     total magnetization       =    22.67 Bohr mag/cell
     absolute magnetization    =    27.37 Bohr mag/cell

     iteration # 17     ecut=    44.10 Ry     beta=0.10
     Davidson diagonalization with overlap
     ethr =  1.46E-06,  avg # of iterations =  2.3

     negative rho (up, down):  3.426E-04 3.179E-04
 
     Adding external electric field

     Computed dipole along edir(3) : 
        Dipole               -0.2815 Ry au,         -0.7155 Debye
        Dipole field         -0.0005 Ry au
 
        Potential amp.        0.0392 Ry
        Total length         38.9923 bohr
 
 
     Adding external electric field

     Computed dipole along edir(3) : 
        Dipole               -0.2815 Ry au,         -0.7155 Debye
        Dipole field         -0.0005 Ry au
 
        Potential amp.        0.0392 Ry
        Total length         38.9923 bohr
 
 
     Magnetic moment per site:
     atom:    1    charge:    3.9718    magn:    0.3879    constr:    0.0000
     atom:    2    charge:    3.9693    magn:    0.3948    constr:    0.0000
     atom:    3    charge:    3.9688    magn:    0.3756    constr:    0.0000
     atom:    4    charge:    3.9681    magn:    0.3944    constr:    0.0000
     atom:    5    charge:    3.9717    magn:    0.3880    constr:    0.0000
     atom:    6    charge:    3.9693    magn:    0.3948    constr:    0.0000
     atom:    7    charge:    3.9696    magn:    0.3924    constr:    0.0000
     atom:    8    charge:    3.9749    magn:    0.3973    constr:    0.0000
     atom:    9    charge:    3.9718    magn:    0.3844    constr:    0.0000
     atom:   10    charge:    3.9692    magn:    0.3926    constr:    0.0000
     atom:   11    charge:    3.9696    magn:    0.3923    constr:    0.0000
     atom:   12    charge:    3.9749    magn:    0.3974    constr:    0.0000
     atom:   13    charge:    3.9718    magn:    0.3844    constr:    0.0000
     atom:   14    charge:    3.9693    magn:    0.3949    constr:    0.0000
     atom:   15    charge:    3.9696    magn:    0.4004    constr:    0.0000
     atom:   16    charge:    3.9681    magn:    0.3945    constr:    0.0000
     atom:   17    charge:    3.9718    magn:    0.3854    constr:    0.0000
     atom:   18    charge:    3.9698    magn:    0.3974    constr:    0.0000
     atom:   19    charge:    3.9696    magn:    0.4004    constr:    0.0000
     atom:   20    charge:    3.9681    magn:    0.3944    constr:    0.0000
     atom:   21    charge:    3.9717    magn:    0.3844    constr:    0.0000
     atom:   22    charge:    3.9693    magn:    0.3948    constr:    0.0000
     atom:   23    charge:    3.9696    magn:    0.3924    constr:    0.0000
     atom:   24    charge:    3.9727    magn:    0.4087    constr:    0.0000
     atom:   25    charge:    3.9717    magn:    0.3880    constr:    0.0000
     atom:   26    charge:    3.9700    magn:    0.3780    constr:    0.0000
     atom:   27    charge:    3.9688    magn:    0.3756    constr:    0.0000
     atom:   28    charge:    3.9727    magn:    0.4087    constr:    0.0000
     atom:   29    charge:    3.9718    magn:    0.3854    constr:    0.0000
     atom:   30    charge:    3.9693    magn:    0.3948    constr:    0.0000
     atom:   31    charge:    3.9696    magn:    0.4004    constr:    0.0000
     atom:   32    charge:    3.9749    magn:    0.3973    constr:    0.0000
     atom:   33    charge:    3.9718    magn:    0.3854    constr:    0.0000
     atom:   34    charge:    3.9693    magn:    0.3948    constr:    0.0000
     atom:   35    charge:    3.9688    magn:    0.3756    constr:    0.0000
     atom:   36    charge:    3.9727    magn:    0.4087    constr:    0.0000
     atom:   37    charge:    2.0094    magn:    0.1504    constr:    0.0000

     total cpu time spent up to now is     1384.0 secs

     total energy              =   -3656.58561408 Ry
     Harris-Foulkes estimate   =   -3656.58501240 Ry
     estimated scf accuracy    <       0.00215036 Ry

     total magnetization       =    22.48 Bohr mag/cell
     absolute magnetization    =    27.07 Bohr mag/cell

     iteration # 18     ecut=    44.10 Ry     beta=0.10
     Davidson diagonalization with overlap
     ethr =  5.88E-07,  avg # of iterations =  1.5

     negative rho (up, down):  3.349E-04 3.006E-04
 
     Adding external electric field

     Computed dipole along edir(3) : 
        Dipole               -0.2859 Ry au,         -0.7267 Debye
        Dipole field         -0.0005 Ry au
 
        Potential amp.        0.0398 Ry
        Total length         38.9923 bohr
 
 
     Adding external electric field

     Computed dipole along edir(3) : 
        Dipole               -0.2859 Ry au,         -0.7267 Debye
        Dipole field         -0.0005 Ry au
 
        Potential amp.        0.0398 Ry
        Total length         38.9923 bohr
 
 
     Magnetic moment per site:
     atom:    1    charge:    3.9716    magn:    0.3869    constr:    0.0000
     atom:    2    charge:    3.9692    magn:    0.3937    constr:    0.0000
     atom:    3    charge:    3.9686    magn:    0.3739    constr:    0.0000
     atom:    4    charge:    3.9681    magn:    0.3916    constr:    0.0000
     atom:    5    charge:    3.9716    magn:    0.3869    constr:    0.0000
     atom:    6    charge:    3.9692    magn:    0.3937    constr:    0.0000
     atom:    7    charge:    3.9693    magn:    0.3911    constr:    0.0000
     atom:    8    charge:    3.9749    magn:    0.3967    constr:    0.0000
     atom:    9    charge:    3.9718    magn:    0.3830    constr:    0.0000
     atom:   10    charge:    3.9693    magn:    0.3913    constr:    0.0000
     atom:   11    charge:    3.9693    magn:    0.3910    constr:    0.0000
     atom:   12    charge:    3.9749    magn:    0.3967    constr:    0.0000
     atom:   13    charge:    3.9718    magn:    0.3830    constr:    0.0000
     atom:   14    charge:    3.9692    magn:    0.3937    constr:    0.0000
     atom:   15    charge:    3.9692    magn:    0.3997    constr:    0.0000
     atom:   16    charge:    3.9681    magn:    0.3916    constr:    0.0000
     atom:   17    charge:    3.9718    magn:    0.3841    constr:    0.0000
[...]
     9.4042   9.4645   9.6067   9.6797   9.8739  10.0209  10.1958  10.2890
    10.3459  10.5851  10.6383  10.7220  10.8421  10.9773  11.0009  11.0730
    11.1540  11.1914  11.3238  11.5242  11.5669  11.6579  11.7484  11.8315
    11.9517  11.9637  12.1387  12.2193  12.2474  12.4108  12.4533  12.6061
    12.6886  12.7992  12.9669  13.0793  13.0955  13.1093  13.1489  13.3076
    13.4009  13.4053  13.4971

 ------ SPIN DOWN ----------


          k = 0.0000 0.0000 0.0000 ( 34645 PWs)   bands (ev):

   -16.7432  -6.2894  -4.9597  -3.4451  -3.4450  -3.3276  -3.1855  -3.1498
    -3.1498  -3.1376  -2.9466  -2.9466  -2.7541  -2.3359  -2.3209  -2.3209
    -2.2531  -2.1152  -2.1151  -2.0122  -1.4827  -1.4807  -1.4806  -1.3343
    -1.3343  -1.2702  -0.9315  -0.9315  -0.9288  -0.9077  -0.9077  -0.8987
    -0.7793  -0.7793  -0.7738  -0.7738  -0.7597  -0.7452  -0.7377  -0.7300
    -0.7300  -0.7255  -0.6983  -0.6982  -0.6899  -0.6870  -0.6870  -0.5202
    -0.4339  -0.4339  -0.4005  -0.4005  -0.3780  -0.3780  -0.3776  -0.2888
    -0.2682  -0.2682  -0.0107  -0.0106   0.0008   0.0026   0.0027   0.0038
     0.1327   0.1328   0.2001   0.2005   0.2746   0.2746   0.3082   0.3136
     0.3136   0.3150   0.3757   0.3978   0.5340   0.5340   0.5659   0.5734
     0.5802   0.5802   0.6018   0.6101   0.6102   0.6249   0.6249   0.6509
     0.6527   0.6527   0.6650   0.6650   0.6874   0.7071   0.7088   0.7340
     0.7340   0.7667   0.7668   0.7691   0.7883   0.7981   0.7981   0.8076
     0.8223   0.8224   0.8327   0.8428   0.8428   0.8910   0.8910   0.9344
     0.9345   0.9775   1.0517   1.0517   1.0912   1.1165   1.1165   1.1638
     1.2060   1.2060   1.2161   1.2729   1.2729   1.2849   1.3633   1.3633
     1.4635   1.4636   1.4667   1.5225   1.5670   1.5670   1.5779   1.5779
     1.6829   1.6849   1.6849   1.7129   1.7160   1.7160   1.7298   1.7298
     1.7638   1.7639   1.7757   1.8279   1.8447   1.8685   1.8685   1.8910
     1.9083   1.9083   1.9288   1.9451   1.9452   1.9466   1.9466   1.9638
     1.9709   1.9798   1.9848   1.9848   2.0093   2.0093   2.0252   2.0478
     2.0478   2.0604   2.0604   2.0750   2.0816   2.0816   2.0990   2.0990
     2.1219   2.1443   2.1443   2.1462   2.1462   2.1546   2.1850   2.1907
     2.1907   2.2205   2.2205   2.2278   2.2302   2.2683   2.2684   2.3410
     2.3410   2.3422   2.3733   2.3733   2.3837   2.5272   2.5272   2.5732
     2.8185   3.1374   3.1374   3.1612   3.4928   3.4928   4.4227   5.3339
     5.3340   5.3471   5.6685   5.6685   6.2430   6.5639   6.8843   7.0562
     7.0563   7.2685   7.2969   7.2969   7.4813   7.6859   7.6860   7.6872
     7.7717   7.7718   8.0203   8.0315   8.0514   8.3295   8.3295   8.5490
     8.9302   9.0707   9.0707   9.7482   9.7556   9.7556   9.7698   9.7698
     9.8457   9.8761   9.8761   9.9572  10.1083  10.1165  10.1166  10.1208
    10.1208  10.2310  10.5884  10.9190  10.9533  10.9534  10.9697  10.9698
    10.9844  11.2131  11.3146  11.3624  11.3624  11.5644  11.5645  11.5713
    11.5713  11.6057  11.6606  11.7763  11.7764  11.7909  11.7910  11.8285
    12.1595  12.1901  12.1901  12.6483  12.6484  12.7452  12.8189  12.8362
    12.8362  13.3348  13.5160

          k = 0.0000 0.0510 0.0000 ( 34862 PWs)   bands (ev):

   -16.7431  -5.8856  -4.7492  -4.5865  -3.7662  -3.7150  -3.6350  -3.2271
    -3.1523  -2.9620  -2.7152  -2.5054  -2.4428  -2.1857  -2.1749  -1.9879
    -1.9390  -1.8545  -1.7727  -1.7268  -1.7163  -1.4265  -1.4217  -1.3129
    -1.2888  -1.2819  -1.2516  -1.2284  -1.1973  -1.1727  -1.1466  -1.0858
    -0.9630  -0.9190  -0.9073  -0.8970  -0.8790  -0.7633  -0.7589  -0.7403
    -0.7295  -0.7087  -0.6679  -0.6139  -0.5858  -0.5420  -0.4726  -0.4517
    -0.4305  -0.3961  -0.3368  -0.3273  -0.2845  -0.2783  -0.2655  -0.2449
    -0.2220  -0.1268  -0.1191  -0.0901  -0.0866  -0.0237   0.0133   0.0342
     0.1308   0.1474   0.1615   0.1649   0.1875   0.2225   0.2251   0.2638
     0.3116   0.3179   0.3249   0.3455   0.3723   0.3961   0.4131   0.4237
     0.4385   0.4958   0.5092   0.5314   0.5498   0.5676   0.5801   0.5997
     0.6046   0.6144   0.6387   0.6524   0.6664   0.6778   0.6985   0.7130
     0.7153   0.7289   0.7641   0.7647   0.7827   0.8143   0.8174   0.8290
     0.8458   0.8514   0.8682   0.8827   0.9036   0.9253   0.9332   0.9412
     0.9504   0.9992   1.0231   1.0378   1.0642   1.0787   1.1185   1.1507
     1.1592   1.2217   1.2324   1.2573   1.2603   1.2799   1.3007   1.3284
     1.3434   1.3472   1.3562   1.3775   1.3942   1.4307   1.4586   1.4942
     1.5207   1.5741   1.5889   1.5963   1.6033   1.6107   1.6786   1.6918
     1.7131   1.7264   1.7372   1.7571   1.7686   1.7726   1.7918   1.8185
     1.8288   1.8540   1.8918   1.9059   1.9172   1.9355   1.9443   1.9555
     1.9736   1.9891   2.0211   2.0222   2.0571   2.0700   2.0831   2.1100
     2.1204   2.1488   2.1491   2.1640   2.1649   2.1972   2.2101   2.2370
     2.2652   2.2657   2.2710   2.2949   2.2982   2.3029   2.3268   2.3324
     2.3664   2.3901   2.3960   2.4084   2.4337   2.4553   2.4627   2.5199
     2.5631   2.6220   2.8297   2.8958   2.9167   2.9740   3.1111   3.1387
     3.3201   3.3472   3.6434   3.8513   4.1509   4.2732   4.3102   4.6190
     4.6340   4.8090   5.0708   5.1621   5.3001   5.4798   5.7716   5.9763
     6.3826   6.5319   6.6285   6.8084   6.9514   7.0650   7.2250   7.4528
     7.5988   7.7763   8.1199   8.2748   8.4412   8.5540   8.9895   8.9943
     9.0552   9.1253   9.1878   9.1934   9.2417   9.3270   9.3649   9.4279
     9.5419   9.5793   9.6426   9.8292  10.0149  10.1014  10.2972  10.4288
    10.4793  10.6698  10.7199  10.7664  10.8883  11.0506  11.0688  11.1610
    11.2282  11.3021  11.3943  11.5556  11.5932  11.6676  11.7664  11.8638
    12.0360  12.0448  12.2418  12.2692  12.3478  12.5048  12.5599  12.6295
    12.7070  12.8595  12.9814  13.0891  13.1129  13.1698  13.2147  13.3900
    13.4467  13.4494  13.5486

          k = 0.0442 0.0255 0.0000 ( 34862 PWs)   bands (ev):

   -16.7431  -5.8856  -4.7492  -4.5864  -3.7661  -3.7150  -3.6350  -3.2270
    -3.1523  -2.9620  -2.7152  -2.5053  -2.4429  -2.1857  -2.1749  -1.9879
    -1.9391  -1.8545  -1.7727  -1.7268  -1.7163  -1.4265  -1.4218  -1.3128
    -1.2888  -1.2819  -1.2516  -1.2284  -1.1973  -1.1727  -1.1466  -1.0858
    -0.9630  -0.9190  -0.9073  -0.8970  -0.8790  -0.7633  -0.7589  -0.7403
    -0.7294  -0.7087  -0.6679  -0.6139  -0.5859  -0.5419  -0.4726  -0.4517
    -0.4305  -0.3962  -0.3368  -0.3273  -0.2846  -0.2783  -0.2655  -0.2449
    -0.2220  -0.1268  -0.1191  -0.0901  -0.0866  -0.0237   0.0133   0.0342
     0.1308   0.1474   0.1615   0.1649   0.1875   0.2225   0.2251   0.2638
     0.3116   0.3179   0.3249   0.3456   0.3723   0.3961   0.4131   0.4237
     0.4385   0.4958   0.5092   0.5314   0.5498   0.5676   0.5801   0.5996
     0.6046   0.6143   0.6387   0.6524   0.6664   0.6778   0.6985   0.7130
     0.7153   0.7289   0.7641   0.7647   0.7827   0.8144   0.8174   0.8290
     0.8458   0.8514   0.8682   0.8827   0.9036   0.9254   0.9332   0.9412
     0.9504   0.9991   1.0231   1.0378   1.0642   1.0787   1.1185   1.1506
     1.1593   1.2217   1.2324   1.2573   1.2603   1.2799   1.3006   1.3283
     1.3434   1.3472   1.3563   1.3775   1.3941   1.4307   1.4586   1.4942
     1.5208   1.5741   1.5889   1.5963   1.6033   1.6107   1.6787   1.6918
     1.7131   1.7264   1.7372   1.7571   1.7686   1.7726   1.7918   1.8185
     1.8288   1.8540   1.8918   1.9059   1.9172   1.9355   1.9443   1.9555
     1.9736   1.9891   2.0211   2.0222   2.0571   2.0700   2.0830   2.1100
     2.1204   2.1488   2.1491   2.1640   2.1649   2.1972   2.2100   2.2370
     2.2652   2.2657   2.2710   2.2949   2.2982   2.3029   2.3268   2.3324
     2.3664   2.3901   2.3959   2.4084   2.4337   2.4553   2.4627   2.5199
     2.5631   2.6220   2.8297   2.8958   2.9167   2.9740   3.1111   3.1386
     3.3201   3.3471   3.6434   3.8513   4.1509   4.2732   4.3102   4.6190
     4.6340   4.8090   5.0708   5.1621   5.3001   5.4798   5.7716   5.9763
     6.3825   6.5320   6.6285   6.8084   6.9514   7.0649   7.2249   7.4528
     7.5989   7.7763   8.1199   8.2748   8.4413   8.5540   8.9895   8.9944
     9.0552   9.1253   9.1878   9.1934   9.2417   9.3271   9.3649   9.4279
     9.5419   9.5793   9.6426   9.8291  10.0150  10.1014  10.2972  10.4288
    10.4793  10.6698  10.7199  10.7664  10.8883  11.0506  11.0688  11.1610
    11.2282  11.3021  11.3943  11.5556  11.5932  11.6676  11.7664  11.8638
    12.0360  12.0448  12.2418  12.2692  12.3478  12.5047  12.5599  12.6296
    12.7070  12.8596  12.9814  13.0891  13.1129  13.1698  13.2147  13.3901
    13.4466  13.4494  13.5487

          k = 0.0442 0.0765 0.0000 ( 34881 PWs)   bands (ev):

   -16.7430  -5.1344  -5.1206  -5.0723  -3.9683  -3.9413  -3.8365  -3.1602
    -3.0524  -2.8302  -2.2865  -2.2798  -2.2734  -2.1732  -2.1617  -1.9753
    -1.6663  -1.6561  -1.6547  -1.6348  -1.6277  -1.6268  -1.6008  -1.5775
    -1.5549  -1.3884  -1.3745  -1.2894  -1.1567  -1.1532  -1.1464  -1.0654
    -1.0539  -1.0524  -1.0248  -1.0047  -0.9993  -0.9526  -0.9344  -0.7900
    -0.5697  -0.5625  -0.5601  -0.5576  -0.5528  -0.5453  -0.5327  -0.5254
    -0.4678  -0.2438  -0.2248  -0.2218  -0.1745  -0.1702  -0.1515  -0.1510
    -0.1413  -0.1406  -0.0844  -0.0556  -0.0383   0.0206   0.0215   0.0275
     0.0807   0.0830   0.0836   0.1224   0.1384   0.1486   0.2060   0.2637
     0.2812   0.2993   0.3266   0.3735   0.3783   0.3813   0.4094   0.4107
     0.4180   0.4186   0.4246   0.4270   0.4573   0.4587   0.4633   0.4881
     0.4965   0.4984   0.5033   0.5218   0.5231   0.6718   0.6959   0.7358
     0.7362   0.7440   0.7461   0.7890   0.7947   0.8022   0.8125   0.8149
     0.8522   0.8571   0.8574   0.9271   0.9337   0.9427   0.9909   1.0216
     1.0265   1.0339   1.1065   1.1072   1.1227   1.1600   1.1678   1.1783
     1.1921   1.2210   1.2469   1.2571   1.2587   1.2648   1.2662   1.2950
     1.3053   1.3228   1.3370   1.3608   1.3904   1.4183   1.4301   1.4336
     1.5009   1.5074   1.5310   1.5439   1.5857   1.5997   1.6089   1.6141
     1.6475   1.6695   1.6821   1.6873   1.7099   1.7199   1.7215   1.7224
     1.7551   1.8045   1.8268   1.8389   1.8566   1.8937   1.8966   1.9294
     1.9818   1.9939   2.0689   2.0864   2.0898   2.1221   2.1257   2.1429
     2.1770   2.1864   2.2161   2.2405   2.2534   2.2700   2.2708   2.2736
     2.2963   2.3021   2.3172   2.3223   2.3265   2.3423   2.3451   2.4138
     2.4156   2.4256   2.4349   2.4390   2.4429   2.4564   2.5573   2.6939
     2.8173   3.0331   3.0390   3.0701   3.2843   3.3360   3.4090   3.6898
     3.8006   3.8597   3.9365   3.9863   4.0654   4.4411   4.5222   4.5470
     4.7694   4.8250   4.9647   5.0657   5.1568   5.2667   5.3271   5.3633
     5.4330   5.4980   5.5697   6.1482   6.6182   6.7416   7.2965   7.7287
     7.7288   7.7495   7.8768   7.8787   8.0693   8.4200   8.4496   8.5804
     8.9128   8.9298   8.9940   9.1611   9.1688   9.2412   9.2537   9.2733
     9.6345   9.7867   9.7975   9.8993  10.1691  10.3858  10.4441  10.8267
    10.8364  10.9524  11.2259  11.2527  11.2576  11.3364  11.3868  11.4446
    11.8430  11.8603  11.9008  11.9119  11.9287  11.9454  11.9744  11.9933
    12.1337  12.2280  12.2326  12.4152  12.6433  12.6453  12.7152  12.7409
    12.7695  12.7772  12.7935  12.8025  12.9707  13.0188  13.1356  13.1535
    13.2184  13.3415  13.7121

          k = 0.0442-0.0255 0.0000 ( 34862 PWs)   bands (ev):

   -16.7431  -5.8856  -4.7492  -4.5864  -3.7662  -3.7150  -3.6350  -3.2270
    -3.1523  -2.9620  -2.7152  -2.5054  -2.4428  -2.1857  -2.1749  -1.9879
    -1.9390  -1.8545  -1.7727  -1.7268  -1.7163  -1.4265  -1.4217  -1.3129
    -1.2888  -1.2819  -1.2516  -1.2284  -1.1973  -1.1727  -1.1466  -1.0858
    -0.9630  -0.9190  -0.9073  -0.8970  -0.8790  -0.7633  -0.7589  -0.7403
    -0.7295  -0.7087  -0.6679  -0.6139  -0.5858  -0.5420  -0.4726  -0.4517
    -0.4305  -0.3961  -0.3368  -0.3273  -0.2846  -0.2783  -0.2655  -0.2449
    -0.2220  -0.1268  -0.1191  -0.0901  -0.0865  -0.0237   0.0133   0.0342
     0.1308   0.1474   0.1615   0.1649   0.1875   0.2225   0.2251   0.2638
     0.3116   0.3179   0.3249   0.3455   0.3723   0.3961   0.4131   0.4237
     0.4385   0.4958   0.5092   0.5314   0.5498   0.5676   0.5801   0.5997
     0.6046   0.6144   0.6387   0.6524   0.6664   0.6778   0.6985   0.7130
     0.7153   0.7289   0.7641   0.7647   0.7827   0.8143   0.8174   0.8290
     0.8458   0.8514   0.8682   0.8827   0.9036   0.9254   0.9332   0.9412
     0.9504   0.9991   1.0231   1.0378   1.0642   1.0787   1.1185   1.1507
     1.1592   1.2217   1.2324   1.2573   1.2603   1.2799   1.3007   1.3284
     1.3434   1.3472   1.3562   1.3775   1.3942   1.4307   1.4586   1.4942
     1.5207   1.5741   1.5889   1.5963   1.6033   1.6107   1.6786   1.6918
     1.7131   1.7264   1.7372   1.7571   1.7686   1.7726   1.7918   1.8185
     1.8288   1.8540   1.8918   1.9059   1.9172   1.9355   1.9443   1.9555
     1.9736   1.9891   2.0211   2.0222   2.0572   2.0700   2.0830   2.1100
     2.1204   2.1488   2.1491   2.1640   2.1649   2.1972   2.2101   2.2370
     2.2652   2.2657   2.2710   2.2949   2.2982   2.3029   2.3268   2.3324
     2.3664   2.3901   2.3960   2.4084   2.4337   2.4553   2.4627   2.5199
     2.5631   2.6220   2.8297   2.8958   2.9167   2.9740   3.1111   3.1387
     3.3201   3.3472   3.6434   3.8513   4.1509   4.2732   4.3102   4.6190
     4.6340   4.8090   5.0708   5.1621   5.3001   5.4798   5.7716   5.9763
     6.3825   6.5319   6.6285   6.8084   6.9514   7.0649   7.2250   7.4528
     7.5988   7.7763   8.1199   8.2748   8.4412   8.5540   8.9895   8.9943
     9.0551   9.1253   9.1878   9.1934   9.2417   9.3270   9.3649   9.4279
     9.5419   9.5793   9.6427   9.8292  10.0150  10.1014  10.2972  10.4288
    10.4793  10.6698  10.7199  10.7664  10.8883  11.0506  11.0688  11.1610
    11.2282  11.3021  11.3943  11.5556  11.5932  11.6677  11.7664  11.8637
    12.0360  12.0448  12.2418  12.2692  12.3478  12.5048  12.5599  12.6295
    12.7070  12.8595  12.9814  13.0891  13.1129  13.1698  13.2147  13.3900
    13.4467  13.4494  13.5486

     the Fermi energy is     2.1692 ev

!    total energy              =   -3656.62447073 Ry
     Harris-Foulkes estimate   =   -3656.62447102 Ry
     estimated scf accuracy    <       0.00000025 Ry

     The total energy is the sum of the following terms:

     one-electron contribution =  -24359.61182205 Ry
     hartree contribution      =   12581.55677970 Ry
     xc contribution           =   -1514.28981224 Ry
     ewald contribution        =    9635.88281370 Ry
     electric field correction =       0.00003899 Ry
     smearing contrib. (-TS)   =      -0.16246883 Ry

     total magnetization       =    21.75 Bohr mag/cell
     absolute magnetization    =    25.45 Bohr mag/cell

     convergence has been achieved in  16 iterations

     Forces acting on atoms (Ry/au):


     negative rho (up, down):  2.976E-04 2.300E-04
     atom    1 type  1   force =     0.00053925   -0.00032142    0.00551934
     atom    2 type  1   force =    -0.00053642    0.00136602   -0.00288213
     atom    3 type  1   force =     0.00006618    0.00003273    0.00029504
     atom    4 type  1   force =     0.00051655    0.00029728   -0.00023133
     atom    5 type  1   force =    -0.00000754    0.00063053    0.00552048
     atom    6 type  1   force =     0.00091373   -0.00114219   -0.00288316
     atom    7 type  1   force =     0.00002250   -0.00021953   -0.00026669
     atom    8 type  1   force =    -0.00049584    0.00029508   -0.00120713
     atom    9 type  1   force =    -0.00010421   -0.00006229    0.00450576
     atom   10 type  1   force =    -0.00002168   -0.00001863   -0.00562066
     atom   11 type  1   force =    -0.00018472    0.00013168   -0.00026038
     atom   12 type  1   force =     0.00000666   -0.00057549   -0.00120672
     atom   13 type  1   force =    -0.00000595    0.00010702    0.00449473
     atom   14 type  1   force =     0.00053027    0.00138787   -0.00288987
     atom   15 type  1   force =    -0.00000675    0.00020792   -0.00095058
     atom   16 type  1   force =    -0.00052060    0.00027931   -0.00023279
     atom   17 type  1   force =     0.00002153    0.00001586    0.00461745
     atom   18 type  1   force =     0.00001483    0.00001339   -0.00310042
     atom   19 type  1   force =     0.00018238   -0.00010646   -0.00095347
     atom   20 type  1   force =    -0.00001783   -0.00060435   -0.00022869
     atom   21 type  1   force =     0.00009088   -0.00006150    0.00449692
     atom   22 type  1   force =     0.00146624   -0.00024006   -0.00288973
     atom   23 type  1   force =     0.00019903    0.00011365   -0.00023202
     atom   24 type  1   force =     0.00045476    0.00026625   -0.00148113
     atom   25 type  1   force =    -0.00053296   -0.00030907    0.00551134
     atom   26 type  1   force =     0.00000678    0.00000480   -0.00522568
     atom   27 type  1   force =    -0.00006034    0.00001482    0.00028660
     atom   28 type  1   force =     0.00001061   -0.00055476   -0.00146020
     atom   29 type  1   force =    -0.00001401    0.00002729    0.00461818
     atom   30 type  1   force =    -0.00092778   -0.00112724   -0.00289589
     atom   31 type  1   force =    -0.00021393   -0.00011755   -0.00096781
     atom   32 type  1   force =     0.00052737    0.00030549   -0.00119132
     atom   33 type  1   force =     0.00001372   -0.00002624    0.00461912
     atom   34 type  1   force =    -0.00144452   -0.00024329   -0.00289482
     atom   35 type  1   force =    -0.00001299   -0.00006340    0.00028398
     atom   36 type  1   force =    -0.00047057    0.00028779   -0.00146652
     atom   37 type  2   force =    -0.00000464    0.00000868   -0.00114981

     Total force =     0.019173     Total SCF correction =     0.001180
 !ASE

     Writing output data file calc.save
 
     init_run     :     27.10s CPU     31.23s WALL (       1 calls)
     electrons    :  11592.45s CPU  13345.30s WALL (       6 calls)
     update_pot   :     11.41s CPU     12.11s WALL (       5 calls)
     forces       :    276.62s CPU    286.68s WALL (       6 calls)

     Called by init_run:
     wfcinit      :     18.05s CPU     21.60s WALL (       1 calls)
     potinit      :      0.89s CPU      0.96s WALL (       1 calls)

     Called by electrons:
     c_bands      :   7705.34s CPU   9048.07s WALL (     176 calls)
     sum_band     :   2808.17s CPU   3140.20s WALL (     176 calls)
     v_of_rho     :     60.96s CPU     71.41s WALL (     182 calls)
     newd         :   1035.94s CPU   1100.90s WALL (     182 calls)
     mix_rho      :     11.99s CPU     14.98s WALL (     176 calls)

     Called by c_bands:
     init_us_2    :     40.82s CPU     43.43s WALL (    3590 calls)
     cegterg      :   7470.56s CPU   8802.21s WALL (    1760 calls)

     Called by *egterg:
     h_psi        :   3834.13s CPU   4896.77s WALL (    4840 calls)
     s_psi        :    625.47s CPU    644.37s WALL (    4840 calls)
     g_psi        :     15.02s CPU     15.46s WALL (    3070 calls)
     cdiaghg      :   1345.99s CPU   1377.00s WALL (    4780 calls)

     Called by h_psi:
     add_vuspsi   :    634.10s CPU    652.84s WALL (    4840 calls)

     General routines
     calbec       :    950.78s CPU    972.89s WALL (    6660 calls)
     fft          :     57.79s CPU     68.54s WALL (    5696 calls)
     ffts         :      0.90s CPU      1.29s WALL (     716 calls)
     fftw         :   2085.64s CPU   3323.09s WALL ( 2639042 calls)
     interpolate  :      6.80s CPU      9.96s WALL (     716 calls)
     davcio       :      0.03s CPU      0.83s WALL (      10 calls)
 
     Parallel routines
     fft_scatter  :   1222.25s CPU   1943.51s WALL ( 2645454 calls)
 
     PWSCF        :     3h18m CPU        3h48m WALL

 
   This run was terminated on:  18:58: 9  10Mar2017            

=------------------------------------------------------------------------------=
   JOB DONE.
=------------------------------------------------------------------------------=
