  python dir          : /home/vossj/suncat/lib/python2.7/site-packages/espresso
  espresso dir        : /home/vossj/suncat/esdld/espresso-dynpy-beef/bin
  pseudo dir          : /home/alatimer/bin/psp/esp_psp_w_gbrvRu/
  ase-espresso py git : ffa2778-git



     Program PWSCF v.5.1rc2 (svn rev. ) starts on 10Mar2017 at 15: 1:11 

     This program is part of the open-source Quantum ESPRESSO suite
     for quantum simulation of materials; please cite
         "P. Giannozzi et al., J. Phys.:Condens. Matter 21 395502 (2009);
          URL http://www.quantum-espresso.org", 
     in publications or presentations arising from this work. More details at
     http://www.quantum-espresso.org/quote

     Parallel version (MPI), running on    16 processors
     R & G space division:  proc/nbgrp/npool/nimage =      16
     Reading input from pw.inp
     Message from routine read_cards :
     DEPRECATED: no units specified in CELL_PARAMETERS card

     Current dimensions of program PWSCF are:
     Max number of different atomic species (ntypx) = 10
     Max number of k-points (npk) =  40000
     Max angular momentum in pseudopotentials (lmaxx) =  3
     Presently no symmetry can be used with electric field


     IMPORTANT: XC functional enforced from input :
     Exchange-correlation      = RPBE ( 1  4 28  4 0)
     Any further DFT definition will be discarded
     Please, verify this is what you really want

               file Ni.UPF: wavefunction(s)  3D renormalized

     Subspace diagonalization in iterative solution of the eigenvalue problem:
     a serial algorithm will be used

 
     Parallelization info
     --------------------
     sticks:   dense  smooth     PW     G-vecs:    dense   smooth      PW
     Min         386     154     42                68872    17389    2480
     Max         387     155     43                68885    17439    2491
     Sum        6181    2479    673              1102011   278611   39737
 
     Generating pointlists ...
     new r_m :   0.4125 (alat units)  0.7795 (a.u.) for type    1
     new r_m :   0.4125 (alat units)  0.7795 (a.u.) for type    2


     bravais-lattice index     =            0
     lattice parameter (alat)  =       1.8897  a.u.
     unit-cell volume          =    7046.4111 (a.u.)^3
     number of atoms/cell      =           37
     number of atomic types    =            2
     number of electrons       =       366.00
     number of Kohn-Sham states=          283
     kinetic-energy cutoff     =      44.0992  Ry
     charge density cutoff     =     440.9919  Ry
     convergence threshold     =      7.3E-07
     mixing beta               =       0.1000
     number of iterations used =           10  plain     mixing
     Exchange-correlation      = RPBE ( 1  4 28  4 0)
     nstep                     =           50


     celldm(1)=   1.889726  celldm(2)=   0.000000  celldm(3)=   0.000000
     celldm(4)=   0.000000  celldm(5)=   0.000000  celldm(6)=   0.000000

     crystal axes: (cart. coord. in units of alat)
               a(1) = (   7.548011   0.000000   0.000000 )  
               a(2) = (  -3.774005   6.536769   0.000000 )  
               a(3) = (   0.000000   0.000000  21.162925 )  

     reciprocal axes: (cart. coord. in units 2 pi/alat)
               b(1) = (  0.132485  0.076490  0.000000 )  
               b(2) = (  0.000000  0.152981  0.000000 )  
               b(3) = (  0.000000  0.000000  0.047252 )  


     PseudoPot. # 1 for Ni read from file:
     /home/alatimer/bin/psp/esp_psp_w_gbrvRu/Ni.UPF
     MD5 check sum: 8b2449ee0060d9c33484ccd47bb60870
     Pseudo is Ultrasoft + core correction, Zval = 10.0
     Generated using "atomic" code by A. Dal Corso  v.5.0.2 svn rev. 9415
     Using radial grid of 1195 points,  6 beta functions with: 
                l(1) =   0
                l(2) =   0
                l(3) =   1
                l(4) =   1
                l(5) =   2
                l(6) =   2
     Q(r) pseudized with 0 coefficients 


     PseudoPot. # 2 for  O read from file:
     /home/alatimer/bin/psp/esp_psp_w_gbrvRu/O.UPF
     MD5 check sum: e057bbcf3229fb5d8c36c0c92f9568b4
     Pseudo is Ultrasoft + core correction, Zval =  6.0
     Generated using "atomic" code by A. Dal Corso  v.5.0.2 svn rev. 9415
     Using radial grid of 1095 points,  4 beta functions with: 
                l(1) =   0
                l(2) =   0
                l(3) =   1
                l(4) =   1
     Q(r) pseudized with 0 coefficients 


     atomic species   valence    mass     pseudopotential
        Ni1           10.00    58.69340     Ni( 1.00)
        O1             6.00    15.99940      O( 1.00)

     Starting magnetic structure 
     atomic species   magnetization
        Ni1          0.300
        O1           0.500

     No symmetry found



   Cartesian axes

     site n.     atom                  positions (alat units)
         1           Ni1 tau(   1) = (   0.0000000   0.0000000   7.5000000  )
         2           Ni1 tau(   2) = (   1.2580018   0.7263077   9.5543084  )
         3           Ni1 tau(   3) = (   0.0000000   1.4526154  11.6086168  )
         4           Ni1 tau(   4) = (   1.2580018   2.1789231  13.6629252  )
         5           Ni1 tau(   5) = (  -1.2580018   2.1789231   7.5000000  )
         6           Ni1 tau(   6) = (   0.0000000   2.9052308   9.5543084  )
         7           Ni1 tau(   7) = (  -1.2580018   3.6315385  11.6086168  )
         8           Ni1 tau(   8) = (  -0.0000000   4.3578462  13.6629252  )
         9           Ni1 tau(   9) = (  -2.5160037   4.3578462   7.5000000  )
        10           Ni1 tau(  10) = (  -1.2580018   5.0841539   9.5543084  )
        11           Ni1 tau(  11) = (  -2.5160037   5.8104616  11.6086168  )
        12           Ni1 tau(  12) = (  -1.2580018   6.5367693  13.6629252  )
        13           Ni1 tau(  13) = (   2.5160037   0.0000000   7.5000000  )
        14           Ni1 tau(  14) = (   3.7740055   0.7263077   9.5543084  )
        15           Ni1 tau(  15) = (   2.5160037   1.4526154  11.6086168  )
        16           Ni1 tau(  16) = (   3.7740055   2.1789231  13.6629252  )
        17           Ni1 tau(  17) = (   1.2580018   2.1789231   7.5000000  )
        18           Ni1 tau(  18) = (   2.5160037   2.9052308   9.5543084  )
        19           Ni1 tau(  19) = (   1.2580018   3.6315385  11.6086168  )
        20           Ni1 tau(  20) = (   2.5160037   4.3578462  13.6629252  )
        21           Ni1 tau(  21) = (  -0.0000000   4.3578462   7.5000000  )
        22           Ni1 tau(  22) = (   1.2580018   5.0841539   9.5543084  )
        23           Ni1 tau(  23) = (  -0.0000000   5.8104616  11.6086168  )
        24           Ni1 tau(  24) = (   1.2580018   6.5367693  13.6629252  )
        25           Ni1 tau(  25) = (   5.0320073   0.0000000   7.5000000  )
        26           Ni1 tau(  26) = (   6.2900092   0.7263077   9.5543084  )
        27           Ni1 tau(  27) = (   5.0320073   1.4526154  11.6086168  )
        28           Ni1 tau(  28) = (   6.2900092   2.1789231  13.6629252  )
        29           Ni1 tau(  29) = (   3.7740055   2.1789231   7.5000000  )
        30           Ni1 tau(  30) = (   5.0320073   2.9052308   9.5543084  )
        31           Ni1 tau(  31) = (   3.7740055   3.6315385  11.6086168  )
        32           Ni1 tau(  32) = (   5.0320073   4.3578462  13.6629252  )
        33           Ni1 tau(  33) = (   2.5160037   4.3578462   7.5000000  )
        34           Ni1 tau(  34) = (   3.7740055   5.0841539   9.5543084  )
        35           Ni1 tau(  35) = (   2.5160037   5.8104616  11.6086168  )
        36           Ni1 tau(  36) = (   3.7740055   6.5367693  13.6629252  )
        37           O1  tau(  37) = (   3.1450046   3.2683846  14.8629252  )

     number of k points=    10  Fermi-Dirac smearing, width (Ry)=  0.0073
                       cart. coord. in units 2pi/alat
        k(    1) = (   0.0000000   0.0000000   0.0000000), wk =   0.1111111
        k(    2) = (   0.0000000   0.0509936   0.0000000), wk =   0.2222222
        k(    3) = (   0.0441617   0.0254968   0.0000000), wk =   0.2222222
        k(    4) = (   0.0441617   0.0764904   0.0000000), wk =   0.2222222
        k(    5) = (   0.0441617  -0.0254968   0.0000000), wk =   0.2222222
        k(    6) = (   0.0000000   0.0000000   0.0000000), wk =   0.1111111
        k(    7) = (   0.0000000   0.0509936   0.0000000), wk =   0.2222222
        k(    8) = (   0.0441617   0.0254968   0.0000000), wk =   0.2222222
        k(    9) = (   0.0441617   0.0764904   0.0000000), wk =   0.2222222
        k(   10) = (   0.0441617  -0.0254968   0.0000000), wk =   0.2222222

     Dense  grid:  1102011 G-vectors     FFT dimensions: (  96,  96, 270)

     Smooth grid:   278611 G-vectors     FFT dimensions: (  64,  64, 180)

     Largest allocated arrays     est. size (Mb)     dimensions
        Kohn-Sham Wavefunctions         9.43 Mb     (    2183,  283)
        NL pseudopotentials            21.85 Mb     (    2183,  656)
        Each V/rho on FFT grid          4.78 Mb     (  156672,   2)
        Each G-vector array             0.53 Mb     (   68874)
        G-vector shells                 0.19 Mb     (   24563)
     Largest temporary arrays     est. size (Mb)     dimensions
        Auxiliary wavefunctions        37.71 Mb     (    2183, 1132)
        Each subspace H/S matrix       19.55 Mb     (    1132, 1132)
        Each <psi_i|beta_j> matrix      2.83 Mb     (     656,  283)
        Arrays for rho mixing          23.91 Mb     (  156672,   10)

     Check: negative/imaginary core charge=   -0.000003    0.000000

     Initial potential from superposition of free atoms
     Check: negative starting charge=(component1):   -0.000379
     Check: negative starting charge=(component2):   -0.000199

     starting charge  365.99096, renormalised to  366.00000

     negative rho (up, down):  3.788E-04 1.986E-04
 
     Adding external electric field

     Computed dipole along edir(3) : 
        Dipole               -0.0012 Ry au,         -0.0030 Debye
        Dipole field         -0.0000 Ry au
 
        Potential amp.        0.0002 Ry
        Total length         38.9923 bohr
 
 
     Adding external electric field

     Computed dipole along edir(3) : 
        Dipole               -0.0012 Ry au,         -0.0030 Debye
        Dipole field         -0.0000 Ry au
 
        Potential amp.        0.0002 Ry
        Total length         38.9923 bohr
 
     Starting wfc are  328 randomized atomic wfcs

     total cpu time spent up to now is       31.7 secs

     Self-consistent Calculation

     iteration #  1     ecut=    44.10 Ry     beta=0.10
     Davidson diagonalization with overlap
     ethr =  1.00E-02,  avg # of iterations =  7.0

     negative rho (up, down):  3.443E-04 1.756E-04
 
     Adding external electric field

     Computed dipole along edir(3) : 
        Dipole               -0.0873 Ry au,         -0.2219 Debye
        Dipole field         -0.0002 Ry au
 
        Potential amp.        0.0121 Ry
        Total length         38.9923 bohr
 
 
     Adding external electric field

     Computed dipole along edir(3) : 
        Dipole               -0.0873 Ry au,         -0.2219 Debye
        Dipole field         -0.0002 Ry au
 
        Potential amp.        0.0121 Ry
        Total length         38.9923 bohr
 
 
     Magnetic moment per site:
     atom:    1    charge:    3.9486    magn:    1.1265    constr:    0.0000
     atom:    2    charge:    3.9680    magn:    1.1115    constr:    0.0000
     atom:    3    charge:    3.9682    magn:    1.1117    constr:    0.0000
     atom:    4    charge:    3.9503    magn:    1.1265    constr:    0.0000
     atom:    5    charge:    3.9486    magn:    1.1265    constr:    0.0000
     atom:    6    charge:    3.9680    magn:    1.1115    constr:    0.0000
     atom:    7    charge:    3.9681    magn:    1.1116    constr:    0.0000
     atom:    8    charge:    3.9488    magn:    1.1269    constr:    0.0000
     atom:    9    charge:    3.9492    magn:    1.1262    constr:    0.0000
     atom:   10    charge:    3.9679    magn:    1.1117    constr:    0.0000
     atom:   11    charge:    3.9681    magn:    1.1116    constr:    0.0000
     atom:   12    charge:    3.9488    magn:    1.1269    constr:    0.0000
     atom:   13    charge:    3.9490    magn:    1.1262    constr:    0.0000
     atom:   14    charge:    3.9679    magn:    1.1119    constr:    0.0000
     atom:   15    charge:    3.9684    magn:    1.1115    constr:    0.0000
     atom:   16    charge:    3.9422    magn:    1.1360    constr:    0.0000
     atom:   17    charge:    3.9491    magn:    1.1263    constr:    0.0000
     atom:   18    charge:    3.9678    magn:    1.1121    constr:    0.0000
     atom:   19    charge:    3.9684    magn:    1.1115    constr:    0.0000
     atom:   20    charge:    3.9422    magn:    1.1360    constr:    0.0000
     atom:   21    charge:    3.9490    magn:    1.1262    constr:    0.0000
     atom:   22    charge:    3.9679    magn:    1.1119    constr:    0.0000
     atom:   23    charge:    3.9684    magn:    1.1118    constr:    0.0000
     atom:   24    charge:    3.9488    magn:    1.1272    constr:    0.0000
     atom:   25    charge:    3.9492    magn:    1.1260    constr:    0.0000
     atom:   26    charge:    3.9683    magn:    1.1109    constr:    0.0000
     atom:   27    charge:    3.9696    magn:    1.1096    constr:    0.0000
     atom:   28    charge:    3.9491    magn:    1.1270    constr:    0.0000
     atom:   29    charge:    3.9491    magn:    1.1264    constr:    0.0000
     atom:   30    charge:    3.9681    magn:    1.1118    constr:    0.0000
     atom:   31    charge:    3.9694    magn:    1.1111    constr:    0.0000
     atom:   32    charge:    3.9501    magn:    1.1266    constr:    0.0000
     atom:   33    charge:    3.9491    magn:    1.1264    constr:    0.0000
     atom:   34    charge:    3.9681    magn:    1.1118    constr:    0.0000
     atom:   35    charge:    3.9696    magn:    1.1096    constr:    0.0000
     atom:   36    charge:    3.9491    magn:    1.1270    constr:    0.0000
     atom:   37    charge:    2.0172    magn:    0.9444    constr:    0.0000

     total cpu time spent up to now is      156.8 secs

     total energy              =   -3654.02297118 Ry
     Harris-Foulkes estimate   =   -3654.89107427 Ry
     estimated scf accuracy    <       9.68581475 Ry

     total magnetization       =    37.54 Bohr mag/cell
     absolute magnetization    =    37.59 Bohr mag/cell

     iteration #  2     ecut=    44.10 Ry     beta=0.10
     Davidson diagonalization with overlap
     ethr =  2.65E-03,  avg # of iterations =  2.6

     negative rho (up, down):  3.410E-04 1.985E-04
 
     Adding external electric field

     Computed dipole along edir(3) : 
        Dipole               -0.0658 Ry au,         -0.1674 Debye
        Dipole field         -0.0001 Ry au
 
        Potential amp.        0.0092 Ry
        Total length         38.9923 bohr
 
 
     Adding external electric field

     Computed dipole along edir(3) : 
        Dipole               -0.0658 Ry au,         -0.1674 Debye
        Dipole field         -0.0001 Ry au
 
        Potential amp.        0.0092 Ry
        Total length         38.9923 bohr
 
 
     Magnetic moment per site:
     atom:    1    charge:    3.9625    magn:    1.1030    constr:    0.0000
     atom:    2    charge:    3.9568    magn:    1.1069    constr:    0.0000
     atom:    3    charge:    3.9559    magn:    1.1083    constr:    0.0000
     atom:    4    charge:    3.9636    magn:    1.1036    constr:    0.0000
     atom:    5    charge:    3.9625    magn:    1.1030    constr:    0.0000
     atom:    6    charge:    3.9568    magn:    1.1069    constr:    0.0000
     atom:    7    charge:    3.9561    magn:    1.1079    constr:    0.0000
     atom:    8    charge:    3.9627    magn:    1.1033    constr:    0.0000
     atom:    9    charge:    3.9630    magn:    1.1027    constr:    0.0000
     atom:   10    charge:    3.9569    magn:    1.1070    constr:    0.0000
     atom:   11    charge:    3.9561    magn:    1.1079    constr:    0.0000
     atom:   12    charge:    3.9627    magn:    1.1033    constr:    0.0000
     atom:   13    charge:    3.9629    magn:    1.1027    constr:    0.0000
     atom:   14    charge:    3.9568    magn:    1.1073    constr:    0.0000
     atom:   15    charge:    3.9563    magn:    1.1076    constr:    0.0000
     atom:   16    charge:    3.9551    magn:    1.1146    constr:    0.0000
     atom:   17    charge:    3.9630    magn:    1.1028    constr:    0.0000
     atom:   18    charge:    3.9566    magn:    1.1075    constr:    0.0000
     atom:   19    charge:    3.9563    magn:    1.1076    constr:    0.0000
     atom:   20    charge:    3.9551    magn:    1.1146    constr:    0.0000
     atom:   21    charge:    3.9629    magn:    1.1027    constr:    0.0000
     atom:   22    charge:    3.9568    magn:    1.1073    constr:    0.0000
     atom:   23    charge:    3.9565    magn:    1.1081    constr:    0.0000
     atom:   24    charge:    3.9625    magn:    1.1038    constr:    0.0000
     atom:   25    charge:    3.9630    magn:    1.1025    constr:    0.0000
     atom:   26    charge:    3.9566    magn:    1.1067    constr:    0.0000
     atom:   27    charge:    3.9567    magn:    1.1063    constr:    0.0000
     atom:   28    charge:    3.9628    magn:    1.1036    constr:    0.0000
     atom:   29    charge:    3.9630    magn:    1.1029    constr:    0.0000
     atom:   30    charge:    3.9568    magn:    1.1073    constr:    0.0000
     atom:   31    charge:    3.9570    magn:    1.1076    constr:    0.0000
     atom:   32    charge:    3.9636    magn:    1.1035    constr:    0.0000
     atom:   33    charge:    3.9630    magn:    1.1029    constr:    0.0000
     atom:   34    charge:    3.9568    magn:    1.1073    constr:    0.0000
     atom:   35    charge:    3.9567    magn:    1.1063    constr:    0.0000
     atom:   36    charge:    3.9628    magn:    1.1036    constr:    0.0000
     atom:   37    charge:    2.0244    magn:    0.9286    constr:    0.0000

     total cpu time spent up to now is      231.3 secs

     total energy              =   -3653.95098085 Ry
     Harris-Foulkes estimate   =   -3656.13330811 Ry
     estimated scf accuracy    <      50.33816515 Ry

     total magnetization       =    39.68 Bohr mag/cell
     absolute magnetization    =    39.88 Bohr mag/cell

     iteration #  3     ecut=    44.10 Ry     beta=0.10
     Davidson diagonalization with overlap
     ethr =  2.65E-03,  avg # of iterations =  1.0

     negative rho (up, down):  3.399E-04 1.941E-04
 
     Adding external electric field

     Computed dipole along edir(3) : 
        Dipole               -0.9942 Ry au,         -2.5270 Debye
        Dipole field         -0.0018 Ry au
 
        Potential amp.        0.1383 Ry
        Total length         38.9923 bohr
 
 
     Adding external electric field

     Computed dipole along edir(3) : 
        Dipole               -0.9942 Ry au,         -2.5270 Debye
        Dipole field         -0.0018 Ry au
 
        Potential amp.        0.1383 Ry
        Total length         38.9923 bohr
 
 
     Magnetic moment per site:
     atom:    1    charge:    3.9733    magn:    1.0158    constr:    0.0000
     atom:    2    charge:    3.9566    magn:    1.0252    constr:    0.0000
     atom:    3    charge:    3.9609    magn:    1.0231    constr:    0.0000
     atom:    4    charge:    3.9751    magn:    1.0169    constr:    0.0000
     atom:    5    charge:    3.9733    magn:    1.0158    constr:    0.0000
     atom:    6    charge:    3.9566    magn:    1.0252    constr:    0.0000
     atom:    7    charge:    3.9606    magn:    1.0225    constr:    0.0000
     atom:    8    charge:    3.9767    magn:    1.0133    constr:    0.0000
     atom:    9    charge:    3.9718    magn:    1.0172    constr:    0.0000
     atom:   10    charge:    3.9562    magn:    1.0258    constr:    0.0000
     atom:   11    charge:    3.9606    magn:    1.0226    constr:    0.0000
     atom:   12    charge:    3.9767    magn:    1.0133    constr:    0.0000
     atom:   13    charge:    3.9722    magn:    1.0166    constr:    0.0000
     atom:   14    charge:    3.9566    magn:    1.0258    constr:    0.0000
     atom:   15    charge:    3.9617    magn:    1.0210    constr:    0.0000
     atom:   16    charge:    3.9760    magn:    1.0229    constr:    0.0000
     atom:   17    charge:    3.9723    magn:    1.0171    constr:    0.0000
     atom:   18    charge:    3.9568    magn:    1.0256    constr:    0.0000
     atom:   19    charge:    3.9617    magn:    1.0210    constr:    0.0000
     atom:   20    charge:    3.9760    magn:    1.0229    constr:    0.0000
     atom:   21    charge:    3.9722    magn:    1.0166    constr:    0.0000
     atom:   22    charge:    3.9566    magn:    1.0258    constr:    0.0000
     atom:   23    charge:    3.9612    magn:    1.0229    constr:    0.0000
     atom:   24    charge:    3.9768    magn:    1.0141    constr:    0.0000
     atom:   25    charge:    3.9719    magn:    1.0168    constr:    0.0000
     atom:   26    charge:    3.9574    magn:    1.0240    constr:    0.0000
     atom:   27    charge:    3.9624    magn:    1.0184    constr:    0.0000
     atom:   28    charge:    3.9759    magn:    1.0147    constr:    0.0000
     atom:   29    charge:    3.9719    magn:    1.0174    constr:    0.0000
     atom:   30    charge:    3.9562    magn:    1.0264    constr:    0.0000
     atom:   31    charge:    3.9638    magn:    1.0200    constr:    0.0000
     atom:   32    charge:    3.9751    magn:    1.0166    constr:    0.0000
     atom:   33    charge:    3.9719    magn:    1.0174    constr:    0.0000
     atom:   34    charge:    3.9562    magn:    1.0264    constr:    0.0000
     atom:   35    charge:    3.9624    magn:    1.0184    constr:    0.0000
     atom:   36    charge:    3.9759    magn:    1.0147    constr:    0.0000
     atom:   37    charge:    2.0456    magn:    0.8445    constr:    0.0000

     total cpu time spent up to now is      299.5 secs

     total energy              =   -3655.15173878 Ry
     Harris-Foulkes estimate   =   -3654.93999517 Ry
     estimated scf accuracy    <       2.96107217 Ry

     total magnetization       =    38.40 Bohr mag/cell
     absolute magnetization    =    38.53 Bohr mag/cell

     iteration #  4     ecut=    44.10 Ry     beta=0.10
     Davidson diagonalization with overlap
     ethr =  8.09E-04,  avg # of iterations =  5.7

     negative rho (up, down):  3.379E-04 2.070E-04
 
     Adding external electric field

     Computed dipole along edir(3) : 
        Dipole               -0.1006 Ry au,         -0.2557 Debye
        Dipole field         -0.0002 Ry au
 
        Potential amp.        0.0140 Ry
        Total length         38.9923 bohr
 
 
     Adding external electric field

     Computed dipole along edir(3) : 
        Dipole               -0.1006 Ry au,         -0.2557 Debye
        Dipole field         -0.0002 Ry au
 
        Potential amp.        0.0140 Ry
        Total length         38.9923 bohr
 
 
     Magnetic moment per site:
     atom:    1    charge:    3.9813    magn:    0.9773    constr:    0.0000
     atom:    2    charge:    3.9591    magn:    0.9900    constr:    0.0000
     atom:    3    charge:    3.9612    magn:    0.9902    constr:    0.0000
     atom:    4    charge:    3.9749    magn:    0.9862    constr:    0.0000
     atom:    5    charge:    3.9813    magn:    0.9773    constr:    0.0000
     atom:    6    charge:    3.9591    magn:    0.9900    constr:    0.0000
     atom:    7    charge:    3.9608    magn:    0.9895    constr:    0.0000
     atom:    8    charge:    3.9770    magn:    0.9816    constr:    0.0000
     atom:    9    charge:    3.9792    magn:    0.9792    constr:    0.0000
     atom:   10    charge:    3.9586    magn:    0.9907    constr:    0.0000
     atom:   11    charge:    3.9608    magn:    0.9895    constr:    0.0000
     atom:   12    charge:    3.9770    magn:    0.9816    constr:    0.0000
     atom:   13    charge:    3.9797    magn:    0.9784    constr:    0.0000
     atom:   14    charge:    3.9591    magn:    0.9907    constr:    0.0000
     atom:   15    charge:    3.9618    magn:    0.9879    constr:    0.0000
     atom:   16    charge:    3.9779    magn:    0.9906    constr:    0.0000
     atom:   17    charge:    3.9798    magn:    0.9790    constr:    0.0000
     atom:   18    charge:    3.9593    magn:    0.9904    constr:    0.0000
     atom:   19    charge:    3.9618    magn:    0.9879    constr:    0.0000
     atom:   20    charge:    3.9779    magn:    0.9906    constr:    0.0000
     atom:   21    charge:    3.9797    magn:    0.9785    constr:    0.0000
     atom:   22    charge:    3.9591    magn:    0.9907    constr:    0.0000
     atom:   23    charge:    3.9614    magn:    0.9900    constr:    0.0000
     atom:   24    charge:    3.9770    magn:    0.9826    constr:    0.0000
     atom:   25    charge:    3.9794    magn:    0.9787    constr:    0.0000
     atom:   26    charge:    3.9600    magn:    0.9885    constr:    0.0000
     atom:   27    charge:    3.9623    magn:    0.9848    constr:    0.0000
     atom:   28    charge:    3.9761    magn:    0.9833    constr:    0.0000
     atom:   29    charge:    3.9794    magn:    0.9794    constr:    0.0000
     atom:   30    charge:    3.9585    magn:    0.9914    constr:    0.0000
     atom:   31    charge:    3.9638    magn:    0.9871    constr:    0.0000
     atom:   32    charge:    3.9749    magn:    0.9859    constr:    0.0000
     atom:   33    charge:    3.9794    magn:    0.9794    constr:    0.0000
     atom:   34    charge:    3.9585    magn:    0.9914    constr:    0.0000
     atom:   35    charge:    3.9623    magn:    0.9848    constr:    0.0000
     atom:   36    charge:    3.9761    magn:    0.9833    constr:    0.0000
     atom:   37    charge:    2.0534    magn:    0.8104    constr:    0.0000

     total cpu time spent up to now is      391.3 secs

     total energy              =   -3654.66934007 Ry
     Harris-Foulkes estimate   =   -3656.17256830 Ry
     estimated scf accuracy    <     141.71243997 Ry

     total magnetization       =    38.34 Bohr mag/cell
     absolute magnetization    =    38.50 Bohr mag/cell

     iteration #  5     ecut=    44.10 Ry     beta=0.10
     Davidson diagonalization with overlap
     ethr =  8.09E-04,  avg # of iterations =  3.1

     negative rho (up, down):  3.357E-04 2.057E-04
 
     Adding external electric field

     Computed dipole along edir(3) : 
        Dipole               -0.1867 Ry au,         -0.4745 Debye
        Dipole field         -0.0003 Ry au
 
        Potential amp.        0.0260 Ry
        Total length         38.9923 bohr
 
 
     Adding external electric field

     Computed dipole along edir(3) : 
        Dipole               -0.1867 Ry au,         -0.4745 Debye
        Dipole field         -0.0003 Ry au
 
        Potential amp.        0.0260 Ry
        Total length         38.9923 bohr
 
 
     Magnetic moment per site:
     atom:    1    charge:    3.9776    magn:    0.9433    constr:    0.0000
     atom:    2    charge:    3.9620    magn:    0.9511    constr:    0.0000
     atom:    3    charge:    3.9619    magn:    0.9532    constr:    0.0000
     atom:    4    charge:    3.9815    magn:    0.9450    constr:    0.0000
     atom:    5    charge:    3.9776    magn:    0.9433    constr:    0.0000
     atom:    6    charge:    3.9620    magn:    0.9511    constr:    0.0000
     atom:    7    charge:    3.9623    magn:    0.9516    constr:    0.0000
     atom:    8    charge:    3.9813    magn:    0.9414    constr:    0.0000
     atom:    9    charge:    3.9794    magn:    0.9420    constr:    0.0000
     atom:   10    charge:    3.9627    magn:    0.9508    constr:    0.0000
     atom:   11    charge:    3.9623    magn:    0.9516    constr:    0.0000
     atom:   12    charge:    3.9813    magn:    0.9414    constr:    0.0000
     atom:   13    charge:    3.9791    magn:    0.9419    constr:    0.0000
     atom:   14    charge:    3.9618    magn:    0.9520    constr:    0.0000
     atom:   15    charge:    3.9605    magn:    0.9521    constr:    0.0000
     atom:   16    charge:    3.9678    magn:    0.9612    constr:    0.0000
     atom:   17    charge:    3.9786    magn:    0.9430    constr:    0.0000
     atom:   18    charge:    3.9614    magn:    0.9521    constr:    0.0000
     atom:   19    charge:    3.9605    magn:    0.9521    constr:    0.0000
     atom:   20    charge:    3.9678    magn:    0.9612    constr:    0.0000
     atom:   21    charge:    3.9791    magn:    0.9419    constr:    0.0000
     atom:   22    charge:    3.9618    magn:    0.9520    constr:    0.0000
     atom:   23    charge:    3.9620    magn:    0.9530    constr:    0.0000
     atom:   24    charge:    3.9786    magn:    0.9448    constr:    0.0000
     atom:   25    charge:    3.9789    magn:    0.9422    constr:    0.0000
     atom:   26    charge:    3.9612    magn:    0.9506    constr:    0.0000
     atom:   27    charge:    3.9602    magn:    0.9491    constr:    0.0000
     atom:   28    charge:    3.9814    magn:    0.9425    constr:    0.0000
     atom:   29    charge:    3.9793    magn:    0.9425    constr:    0.0000
     atom:   30    charge:    3.9620    magn:    0.9523    constr:    0.0000
     atom:   31    charge:    3.9595    magn:    0.9540    constr:    0.0000
     atom:   32    charge:    3.9817    magn:    0.9444    constr:    0.0000
     atom:   33    charge:    3.9793    magn:    0.9426    constr:    0.0000
     atom:   34    charge:    3.9620    magn:    0.9523    constr:    0.0000
     atom:   35    charge:    3.9602    magn:    0.9491    constr:    0.0000
     atom:   36    charge:    3.9814    magn:    0.9425    constr:    0.0000
     atom:   37    charge:    2.0596    magn:    0.7713    constr:    0.0000

     total cpu time spent up to now is      468.8 secs

     total energy              =   -3655.52785353 Ry
     Harris-Foulkes estimate   =   -3655.44338203 Ry
     estimated scf accuracy    <       3.06274559 Ry

     total magnetization       =    37.80 Bohr mag/cell
     absolute magnetization    =    38.16 Bohr mag/cell

     iteration #  6     ecut=    44.10 Ry     beta=0.10
     Davidson diagonalization with overlap
     ethr =  8.09E-04,  avg # of iterations =  1.0

     negative rho (up, down):  3.359E-04 2.154E-04
 
     Adding external electric field

     Computed dipole along edir(3) : 
        Dipole               -0.1100 Ry au,         -0.2796 Debye
        Dipole field         -0.0002 Ry au
 
        Potential amp.        0.0153 Ry
        Total length         38.9923 bohr
 
 
     Adding external electric field

     Computed dipole along edir(3) : 
        Dipole               -0.1100 Ry au,         -0.2796 Debye
        Dipole field         -0.0002 Ry au
 
        Potential amp.        0.0153 Ry
        Total length         38.9923 bohr
 
 
     Magnetic moment per site:
     atom:    1    charge:    3.9727    magn:    0.8462    constr:    0.0000
     atom:    2    charge:    3.9622    magn:    0.8533    constr:    0.0000
     atom:    3    charge:    3.9597    magn:    0.8585    constr:    0.0000
     atom:    4    charge:    3.9798    magn:    0.8480    constr:    0.0000
     atom:    5    charge:    3.9727    magn:    0.8462    constr:    0.0000
     atom:    6    charge:    3.9622    magn:    0.8533    constr:    0.0000
     atom:    7    charge:    3.9593    magn:    0.8565    constr:    0.0000
     atom:    8    charge:    3.9724    magn:    0.8477    constr:    0.0000
     atom:    9    charge:    3.9701    magn:    0.8483    constr:    0.0000
     atom:   10    charge:    3.9602    magn:    0.8553    constr:    0.0000
     atom:   11    charge:    3.9593    magn:    0.8565    constr:    0.0000
     atom:   12    charge:    3.9724    magn:    0.8477    constr:    0.0000
     atom:   13    charge:    3.9705    magn:    0.8475    constr:    0.0000
     atom:   14    charge:    3.9631    magn:    0.8534    constr:    0.0000
     atom:   15    charge:    3.9647    magn:    0.8512    constr:    0.0000
     atom:   16    charge:    3.9625    magn:    0.8661    constr:    0.0000
     atom:   17    charge:    3.9729    magn:    0.8464    constr:    0.0000
     atom:   18    charge:    3.9641    magn:    0.8522    constr:    0.0000
     atom:   19    charge:    3.9647    magn:    0.8512    constr:    0.0000
     atom:   20    charge:    3.9625    magn:    0.8661    constr:    0.0000
     atom:   21    charge:    3.9705    magn:    0.8475    constr:    0.0000
     atom:   22    charge:    3.9631    magn:    0.8534    constr:    0.0000
     atom:   23    charge:    3.9627    magn:    0.8555    constr:    0.0000
     atom:   24    charge:    3.9789    magn:    0.8440    constr:    0.0000
     atom:   25    charge:    3.9727    magn:    0.8460    constr:    0.0000
     atom:   26    charge:    3.9638    magn:    0.8499    constr:    0.0000
     atom:   27    charge:    3.9662    magn:    0.8450    constr:    0.0000
     atom:   28    charge:    3.9728    magn:    0.8491    constr:    0.0000
     atom:   29    charge:    3.9718    magn:    0.8472    constr:    0.0000
     atom:   30    charge:    3.9635    magn:    0.8540    constr:    0.0000
     atom:   31    charge:    3.9701    magn:    0.8487    constr:    0.0000
     atom:   32    charge:    3.9796    magn:    0.8474    constr:    0.0000
     atom:   33    charge:    3.9718    magn:    0.8472    constr:    0.0000
     atom:   34    charge:    3.9635    magn:    0.8540    constr:    0.0000
     atom:   35    charge:    3.9662    magn:    0.8450    constr:    0.0000
     atom:   36    charge:    3.9728    magn:    0.8491    constr:    0.0000
     atom:   37    charge:    2.0697    magn:    0.6656    constr:    0.0000

     total cpu time spent up to now is      536.7 secs

     total energy              =   -3655.89220730 Ry
     Harris-Foulkes estimate   =   -3655.57949032 Ry
     estimated scf accuracy    <       1.37238933 Ry

     total magnetization       =    37.60 Bohr mag/cell
     absolute magnetization    =    38.09 Bohr mag/cell

     iteration #  7     ecut=    44.10 Ry     beta=0.10
     Davidson diagonalization with overlap
     ethr =  3.75E-04,  avg # of iterations =  2.7

     negative rho (up, down):  3.518E-04 2.776E-04
 
     Adding external electric field

     Computed dipole along edir(3) : 
        Dipole               -0.0468 Ry au,         -0.1190 Debye
        Dipole field         -0.0001 Ry au
 
        Potential amp.        0.0065 Ry
        Total length         38.9923 bohr
 
 
     Adding external electric field

     Computed dipole along edir(3) : 
        Dipole               -0.0468 Ry au,         -0.1190 Debye
        Dipole field         -0.0001 Ry au
 
        Potential amp.        0.0065 Ry
        Total length         38.9923 bohr
 
 
     Magnetic moment per site:
     atom:    1    charge:    3.9663    magn:    0.7286    constr:    0.0000
     atom:    2    charge:    3.9650    magn:    0.7317    constr:    0.0000
     atom:    3    charge:    3.9659    magn:    0.7361    constr:    0.0000
     atom:    4    charge:    3.9729    magn:    0.7331    constr:    0.0000
     atom:    5    charge:    3.9663    magn:    0.7286    constr:    0.0000
     atom:    6    charge:    3.9650    magn:    0.7318    constr:    0.0000
     atom:    7    charge:    3.9664    magn:    0.7322    constr:    0.0000
     atom:    8    charge:    3.9701    magn:    0.7269    constr:    0.0000
     atom:    9    charge:    3.9666    magn:    0.7283    constr:    0.0000
     atom:   10    charge:    3.9667    magn:    0.7313    constr:    0.0000
     atom:   11    charge:    3.9664    magn:    0.7322    constr:    0.0000
     atom:   12    charge:    3.9701    magn:    0.7269    constr:    0.0000
     atom:   13    charge:    3.9670    magn:    0.7274    constr:    0.0000
     atom:   14    charge:    3.9636    magn:    0.7341    constr:    0.0000
     atom:   15    charge:    3.9662    magn:    0.7306    constr:    0.0000
     atom:   16    charge:    3.9626    magn:    0.7451    constr:    0.0000
     atom:   17    charge:    3.9650    magn:    0.7296    constr:    0.0000
     atom:   18    charge:    3.9622    magn:    0.7345    constr:    0.0000
     atom:   19    charge:    3.9662    magn:    0.7306    constr:    0.0000
     atom:   20    charge:    3.9626    magn:    0.7451    constr:    0.0000
     atom:   21    charge:    3.9670    magn:    0.7274    constr:    0.0000
     atom:   22    charge:    3.9636    magn:    0.7341    constr:    0.0000
     atom:   23    charge:    3.9665    magn:    0.7341    constr:    0.0000
     atom:   24    charge:    3.9652    magn:    0.7326    constr:    0.0000
     atom:   25    charge:    3.9646    magn:    0.7297    constr:    0.0000
     atom:   26    charge:    3.9627    magn:    0.7299    constr:    0.0000
     atom:   27    charge:    3.9646    magn:    0.7245    constr:    0.0000
     atom:   28    charge:    3.9689    magn:    0.7303    constr:    0.0000
     atom:   29    charge:    3.9646    magn:    0.7300    constr:    0.0000
     atom:   30    charge:    3.9633    magn:    0.7356    constr:    0.0000
     atom:   31    charge:    3.9669    magn:    0.7322    constr:    0.0000
     atom:   32    charge:    3.9732    magn:    0.7317    constr:    0.0000
     atom:   33    charge:    3.9646    magn:    0.7300    constr:    0.0000
     atom:   34    charge:    3.9633    magn:    0.7356    constr:    0.0000
     atom:   35    charge:    3.9646    magn:    0.7245    constr:    0.0000
     atom:   36    charge:    3.9689    magn:    0.7303    constr:    0.0000
     atom:   37    charge:    2.0765    magn:    0.5363    constr:    0.0000

     total cpu time spent up to now is      611.7 secs

     total energy              =   -3656.20214973 Ry
     Harris-Foulkes estimate   =   -3655.94036097 Ry
     estimated scf accuracy    <       1.38044871 Ry

     total magnetization       =    35.72 Bohr mag/cell
     absolute magnetization    =    36.62 Bohr mag/cell

     iteration #  8     ecut=    44.10 Ry     beta=0.10
     Davidson diagonalization with overlap
     ethr =  3.75E-04,  avg # of iterations =  2.2

     negative rho (up, down):  3.754E-04 3.517E-04
 
     Adding external electric field

     Computed dipole along edir(3) : 
        Dipole               -0.0680 Ry au,         -0.1727 Debye
        Dipole field         -0.0001 Ry au
 
        Potential amp.        0.0095 Ry
        Total length         38.9923 bohr
 
 
     Adding external electric field

     Computed dipole along edir(3) : 
        Dipole               -0.0680 Ry au,         -0.1727 Debye
        Dipole field         -0.0001 Ry au
 
        Potential amp.        0.0095 Ry
        Total length         38.9923 bohr
 
 
     Magnetic moment per site:
     atom:    1    charge:    3.9644    magn:    0.6293    constr:    0.0000
     atom:    2    charge:    3.9654    magn:    0.6320    constr:    0.0000
     atom:    3    charge:    3.9677    magn:    0.6358    constr:    0.0000
     atom:    4    charge:    3.9737    magn:    0.6332    constr:    0.0000
     atom:    5    charge:    3.9644    magn:    0.6293    constr:    0.0000
     atom:    6    charge:    3.9654    magn:    0.6320    constr:    0.0000
     atom:    7    charge:    3.9664    magn:    0.6326    constr:    0.0000
     atom:    8    charge:    3.9704    magn:    0.6260    constr:    0.0000
     atom:    9    charge:    3.9649    magn:    0.6289    constr:    0.0000
     atom:   10    charge:    3.9643    magn:    0.6339    constr:    0.0000
     atom:   11    charge:    3.9664    magn:    0.6327    constr:    0.0000
     atom:   12    charge:    3.9704    magn:    0.6260    constr:    0.0000
     atom:   13    charge:    3.9644    magn:    0.6287    constr:    0.0000
     atom:   14    charge:    3.9676    magn:    0.6321    constr:    0.0000
     atom:   15    charge:    3.9649    magn:    0.6316    constr:    0.0000
     atom:   16    charge:    3.9653    magn:    0.6408    constr:    0.0000
     atom:   17    charge:    3.9658    magn:    0.6280    constr:    0.0000
     atom:   18    charge:    3.9683    magn:    0.6309    constr:    0.0000
     atom:   19    charge:    3.9649    magn:    0.6316    constr:    0.0000
     atom:   20    charge:    3.9653    magn:    0.6408    constr:    0.0000
     atom:   21    charge:    3.9644    magn:    0.6287    constr:    0.0000
     atom:   22    charge:    3.9676    magn:    0.6321    constr:    0.0000
     atom:   23    charge:    3.9661    magn:    0.6350    constr:    0.0000
     atom:   24    charge:    3.9681    magn:    0.6301    constr:    0.0000
     atom:   25    charge:    3.9671    magn:    0.6273    constr:    0.0000
     atom:   26    charge:    3.9679    magn:    0.6251    constr:    0.0000
     atom:   27    charge:    3.9663    magn:    0.6211    constr:    0.0000
     atom:   28    charge:    3.9717    magn:    0.6281    constr:    0.0000
     atom:   29    charge:    3.9687    magn:    0.6259    constr:    0.0000
     atom:   30    charge:    3.9671    magn:    0.6341    constr:    0.0000
     atom:   31    charge:    3.9663    magn:    0.6330    constr:    0.0000
     atom:   32    charge:    3.9738    magn:    0.6318    constr:    0.0000
     atom:   33    charge:    3.9687    magn:    0.6259    constr:    0.0000
     atom:   34    charge:    3.9670    magn:    0.6341    constr:    0.0000
     atom:   35    charge:    3.9663    magn:    0.6211    constr:    0.0000
     atom:   36    charge:    3.9717    magn:    0.6281    constr:    0.0000
     atom:   37    charge:    2.0731    magn:    0.4277    constr:    0.0000

     total cpu time spent up to now is      684.6 secs

     total energy              =   -3656.40437339 Ry
     Harris-Foulkes estimate   =   -3656.25815455 Ry
     estimated scf accuracy    <       0.84688675 Ry

     total magnetization       =    32.23 Bohr mag/cell
     absolute magnetization    =    34.04 Bohr mag/cell

     iteration #  9     ecut=    44.10 Ry     beta=0.10
     Davidson diagonalization with overlap
     ethr =  2.31E-04,  avg # of iterations =  4.9

     negative rho (up, down):  4.131E-04 4.508E-04
 
     Adding external electric field

     Computed dipole along edir(3) : 
        Dipole               -0.0944 Ry au,         -0.2398 Debye
        Dipole field         -0.0002 Ry au
 
        Potential amp.        0.0131 Ry
        Total length         38.9923 bohr
 
 
     Adding external electric field

     Computed dipole along edir(3) : 
        Dipole               -0.0944 Ry au,         -0.2398 Debye
        Dipole field         -0.0002 Ry au
 
        Potential amp.        0.0131 Ry
        Total length         38.9923 bohr
 
 
     Magnetic moment per site:
     atom:    1    charge:    3.9685    magn:    0.5173    constr:    0.0000
     atom:    2    charge:    3.9692    magn:    0.5212    constr:    0.0000
     atom:    3    charge:    3.9672    magn:    0.5280    constr:    0.0000
     atom:    4    charge:    3.9808    magn:    0.5195    constr:    0.0000
     atom:    5    charge:    3.9685    magn:    0.5173    constr:    0.0000
     atom:    6    charge:    3.9692    magn:    0.5212    constr:    0.0000
     atom:    7    charge:    3.9683    magn:    0.5228    constr:    0.0000
     atom:    8    charge:    3.9721    magn:    0.5156    constr:    0.0000
     atom:    9    charge:    3.9690    magn:    0.5165    constr:    0.0000
     atom:   10    charge:    3.9689    magn:    0.5225    constr:    0.0000
     atom:   11    charge:    3.9684    magn:    0.5228    constr:    0.0000
     atom:   12    charge:    3.9721    magn:    0.5156    constr:    0.0000
     atom:   13    charge:    3.9694    magn:    0.5159    constr:    0.0000
     atom:   14    charge:    3.9689    magn:    0.5234    constr:    0.0000
     atom:   15    charge:    3.9684    magn:    0.5206    constr:    0.0000
     atom:   16    charge:    3.9667    magn:    0.5254    constr:    0.0000
     atom:   17    charge:    3.9692    magn:    0.5159    constr:    0.0000
     atom:   18    charge:    3.9694    magn:    0.5222    constr:    0.0000
     atom:   19    charge:    3.9684    magn:    0.5206    constr:    0.0000
     atom:   20    charge:    3.9667    magn:    0.5254    constr:    0.0000
     atom:   21    charge:    3.9694    magn:    0.5159    constr:    0.0000
     atom:   22    charge:    3.9689    magn:    0.5234    constr:    0.0000
     atom:   23    charge:    3.9687    magn:    0.5244    constr:    0.0000
     atom:   24    charge:    3.9722    magn:    0.5184    constr:    0.0000
     atom:   25    charge:    3.9676    magn:    0.5178    constr:    0.0000
     atom:   26    charge:    3.9692    magn:    0.5142    constr:    0.0000
     atom:   27    charge:    3.9674    magn:    0.5091    constr:    0.0000
     atom:   28    charge:    3.9702    magn:    0.5209    constr:    0.0000
     atom:   29    charge:    3.9665    magn:    0.5179    constr:    0.0000
     atom:   30    charge:    3.9693    magn:    0.5248    constr:    0.0000
     atom:   31    charge:    3.9707    magn:    0.5216    constr:    0.0000
     atom:   32    charge:    3.9806    magn:    0.5185    constr:    0.0000
     atom:   33    charge:    3.9665    magn:    0.5179    constr:    0.0000
     atom:   34    charge:    3.9693    magn:    0.5248    constr:    0.0000
     atom:   35    charge:    3.9674    magn:    0.5091    constr:    0.0000
     atom:   36    charge:    3.9702    magn:    0.5209    constr:    0.0000
     atom:   37    charge:    2.0622    magn:    0.3074    constr:    0.0000

     total cpu time spent up to now is      769.8 secs

     total energy              =   -3656.52145129 Ry
     Harris-Foulkes estimate   =   -3656.44385846 Ry
     estimated scf accuracy    <       0.56507384 Ry

     total magnetization       =    29.24 Bohr mag/cell
     absolute magnetization    =    32.05 Bohr mag/cell

     iteration # 10     ecut=    44.10 Ry     beta=0.10
     Davidson diagonalization with overlap
     ethr =  1.54E-04,  avg # of iterations =  3.2

     negative rho (up, down):  4.405E-04 5.168E-04
 
     Adding external electric field

     Computed dipole along edir(3) : 
        Dipole               -0.1048 Ry au,         -0.2665 Debye
        Dipole field         -0.0002 Ry au
 
        Potential amp.        0.0146 Ry
        Total length         38.9923 bohr
 
 
     Adding external electric field

     Computed dipole along edir(3) : 
        Dipole               -0.1048 Ry au,         -0.2665 Debye
        Dipole field         -0.0002 Ry au
 
        Potential amp.        0.0146 Ry
        Total length         38.9923 bohr
 
 
     Magnetic moment per site:
     atom:    1    charge:    3.9693    magn:    0.4298    constr:    0.0000
     atom:    2    charge:    3.9715    magn:    0.4340    constr:    0.0000
     atom:    3    charge:    3.9711    magn:    0.4397    constr:    0.0000
     atom:    4    charge:    3.9798    magn:    0.4319    constr:    0.0000
     atom:    5    charge:    3.9693    magn:    0.4298    constr:    0.0000
     atom:    6    charge:    3.9715    magn:    0.4340    constr:    0.0000
     atom:    7    charge:    3.9710    magn:    0.4350    constr:    0.0000
     atom:    8    charge:    3.9693    magn:    0.4310    constr:    0.0000
     atom:    9    charge:    3.9691    magn:    0.4291    constr:    0.0000
     atom:   10    charge:    3.9722    magn:    0.4344    constr:    0.0000
     atom:   11    charge:    3.9710    magn:    0.4350    constr:    0.0000
     atom:   12    charge:    3.9693    magn:    0.4310    constr:    0.0000
     atom:   13    charge:    3.9687    magn:    0.4291    constr:    0.0000
     atom:   14    charge:    3.9711    magn:    0.4366    constr:    0.0000
     atom:   15    charge:    3.9721    magn:    0.4325    constr:    0.0000
     atom:   16    charge:    3.9662    magn:    0.4300    constr:    0.0000
     atom:   17    charge:    3.9681    magn:    0.4290    constr:    0.0000
     atom:   18    charge:    3.9704    magn:    0.4360    constr:    0.0000
     atom:   19    charge:    3.9721    magn:    0.4325    constr:    0.0000
     atom:   20    charge:    3.9662    magn:    0.4300    constr:    0.0000
     atom:   21    charge:    3.9687    magn:    0.4291    constr:    0.0000
     atom:   22    charge:    3.9711    magn:    0.4366    constr:    0.0000
     atom:   23    charge:    3.9717    magn:    0.4358    constr:    0.0000
     atom:   24    charge:    3.9686    magn:    0.4340    constr:    0.0000
     atom:   25    charge:    3.9695    magn:    0.4294    constr:    0.0000
     atom:   26    charge:    3.9711    magn:    0.4257    constr:    0.0000
     atom:   27    charge:    3.9709    magn:    0.4185    constr:    0.0000
     atom:   28    charge:    3.9713    magn:    0.4341    constr:    0.0000
     atom:   29    charge:    3.9698    magn:    0.4284    constr:    0.0000
     atom:   30    charge:    3.9708    magn:    0.4383    constr:    0.0000
     atom:   31    charge:    3.9742    magn:    0.4336    constr:    0.0000
     atom:   32    charge:    3.9798    magn:    0.4318    constr:    0.0000
     atom:   33    charge:    3.9698    magn:    0.4284    constr:    0.0000
     atom:   34    charge:    3.9708    magn:    0.4383    constr:    0.0000
     atom:   35    charge:    3.9709    magn:    0.4185    constr:    0.0000
     atom:   36    charge:    3.9713    magn:    0.4342    constr:    0.0000
     atom:   37    charge:    2.0463    magn:    0.2085    constr:    0.0000

     total cpu time spent up to now is      847.1 secs

     total energy              =   -3656.55967121 Ry
     Harris-Foulkes estimate   =   -3656.55835440 Ry
     estimated scf accuracy    <       0.49104535 Ry

     total magnetization       =    25.85 Bohr mag/cell
     absolute magnetization    =    29.80 Bohr mag/cell

     iteration # 11     ecut=    44.10 Ry     beta=0.10
     Davidson diagonalization with overlap
     ethr =  1.34E-04,  avg # of iterations =  1.2

     negative rho (up, down):  4.259E-04 4.911E-04
 
     Adding external electric field

     Computed dipole along edir(3) : 
        Dipole               -0.1202 Ry au,         -0.3056 Debye
        Dipole field         -0.0002 Ry au
 
        Potential amp.        0.0167 Ry
        Total length         38.9923 bohr
 
 
     Adding external electric field

     Computed dipole along edir(3) : 
        Dipole               -0.1202 Ry au,         -0.3056 Debye
        Dipole field         -0.0002 Ry au
 
        Potential amp.        0.0167 Ry
        Total length         38.9923 bohr
 
 
     Magnetic moment per site:
     atom:    1    charge:    3.9687    magn:    0.4118    constr:    0.0000
     atom:    2    charge:    3.9725    magn:    0.4152    constr:    0.0000
     atom:    3    charge:    3.9712    magn:    0.4211    constr:    0.0000
     atom:    4    charge:    3.9775    magn:    0.4139    constr:    0.0000
     atom:    5    charge:    3.9687    magn:    0.4118    constr:    0.0000
     atom:    6    charge:    3.9725    magn:    0.4152    constr:    0.0000
     atom:    7    charge:    3.9713    magn:    0.4165    constr:    0.0000
     atom:    8    charge:    3.9696    magn:    0.4128    constr:    0.0000
     atom:    9    charge:    3.9686    magn:    0.4108    constr:    0.0000
     atom:   10    charge:    3.9727    magn:    0.4158    constr:    0.0000
     atom:   11    charge:    3.9713    magn:    0.4165    constr:    0.0000
     atom:   12    charge:    3.9696    magn:    0.4128    constr:    0.0000
     atom:   13    charge:    3.9687    magn:    0.4105    constr:    0.0000
     atom:   14    charge:    3.9722    magn:    0.4177    constr:    0.0000
     atom:   15    charge:    3.9719    magn:    0.4144    constr:    0.0000
     atom:   16    charge:    3.9663    magn:    0.4074    constr:    0.0000
     atom:   17    charge:    3.9688    magn:    0.4099    constr:    0.0000
     atom:   18    charge:    3.9721    magn:    0.4170    constr:    0.0000
     atom:   19    charge:    3.9719    magn:    0.4144    constr:    0.0000
     atom:   20    charge:    3.9663    magn:    0.4074    constr:    0.0000
     atom:   21    charge:    3.9687    magn:    0.4105    constr:    0.0000
     atom:   22    charge:    3.9722    magn:    0.4177    constr:    0.0000
     atom:   23    charge:    3.9725    magn:    0.4165    constr:    0.0000
     atom:   24    charge:    3.9688    magn:    0.4156    constr:    0.0000
     atom:   25    charge:    3.9685    magn:    0.4113    constr:    0.0000
     atom:   26    charge:    3.9726    magn:    0.4064    constr:    0.0000
     atom:   27    charge:    3.9711    magn:    0.3994    constr:    0.0000
     atom:   28    charge:    3.9689    magn:    0.4177    constr:    0.0000
     atom:   29    charge:    3.9689    magn:    0.4103    constr:    0.0000
     atom:   30    charge:    3.9719    magn:    0.4194    constr:    0.0000
     atom:   31    charge:    3.9734    magn:    0.4160    constr:    0.0000
     atom:   32    charge:    3.9775    magn:    0.4144    constr:    0.0000
     atom:   33    charge:    3.9688    magn:    0.4103    constr:    0.0000
     atom:   34    charge:    3.9719    magn:    0.4194    constr:    0.0000
     atom:   35    charge:    3.9712    magn:    0.3994    constr:    0.0000
     atom:   36    charge:    3.9689    magn:    0.4177    constr:    0.0000
     atom:   37    charge:    2.0411    magn:    0.1857    constr:    0.0000

     total cpu time spent up to now is      915.8 secs

     total energy              =   -3656.56973574 Ry
     Harris-Foulkes estimate   =   -3656.57959829 Ry
     estimated scf accuracy    <       0.28587108 Ry

     total magnetization       =    23.08 Bohr mag/cell
     absolute magnetization    =    27.88 Bohr mag/cell

     iteration # 12     ecut=    44.10 Ry     beta=0.10
     Davidson diagonalization with overlap
     ethr =  7.81E-05,  avg # of iterations =  1.8

     negative rho (up, down):  3.977E-04 4.348E-04
 
     Adding external electric field

     Computed dipole along edir(3) : 
        Dipole               -0.1294 Ry au,         -0.3289 Debye
        Dipole field         -0.0002 Ry au
 
        Potential amp.        0.0180 Ry
        Total length         38.9923 bohr
 
 
     Adding external electric field

     Computed dipole along edir(3) : 
        Dipole               -0.1294 Ry au,         -0.3289 Debye
        Dipole field         -0.0002 Ry au
 
        Potential amp.        0.0180 Ry
        Total length         38.9923 bohr
 
 
     Magnetic moment per site:
     atom:    1    charge:    3.9688    magn:    0.4162    constr:    0.0000
     atom:    2    charge:    3.9716    magn:    0.4195    constr:    0.0000
     atom:    3    charge:    3.9718    magn:    0.4238    constr:    0.0000
     atom:    4    charge:    3.9765    magn:    0.4174    constr:    0.0000
     atom:    5    charge:    3.9688    magn:    0.4162    constr:    0.0000
     atom:    6    charge:    3.9716    magn:    0.4195    constr:    0.0000
     atom:    7    charge:    3.9718    magn:    0.4198    constr:    0.0000
     atom:    8    charge:    3.9680    magn:    0.4193    constr:    0.0000
     atom:    9    charge:    3.9693    magn:    0.4145    constr:    0.0000
     atom:   10    charge:    3.9711    magn:    0.4204    constr:    0.0000
     atom:   11    charge:    3.9718    magn:    0.4198    constr:    0.0000
     atom:   12    charge:    3.9680    magn:    0.4193    constr:    0.0000
     atom:   13    charge:    3.9689    magn:    0.4144    constr:    0.0000
     atom:   14    charge:    3.9716    magn:    0.4218    constr:    0.0000
     atom:   15    charge:    3.9709    magn:    0.4191    constr:    0.0000
     atom:   16    charge:    3.9655    magn:    0.4061    constr:    0.0000
     atom:   17    charge:    3.9687    magn:    0.4142    constr:    0.0000
     atom:   18    charge:    3.9725    magn:    0.4209    constr:    0.0000
     atom:   19    charge:    3.9709    magn:    0.4191    constr:    0.0000
     atom:   20    charge:    3.9655    magn:    0.4061    constr:    0.0000
     atom:   21    charge:    3.9689    magn:    0.4143    constr:    0.0000
     atom:   22    charge:    3.9716    magn:    0.4218    constr:    0.0000
     atom:   23    charge:    3.9709    magn:    0.4205    constr:    0.0000
     atom:   24    charge:    3.9674    magn:    0.4210    constr:    0.0000
     atom:   25    charge:    3.9684    magn:    0.4155    constr:    0.0000
     atom:   26    charge:    3.9727    magn:    0.4102    constr:    0.0000
     atom:   27    charge:    3.9705    magn:    0.4030    constr:    0.0000
     atom:   28    charge:    3.9688    magn:    0.4227    constr:    0.0000
     atom:   29    charge:    3.9680    magn:    0.4151    constr:    0.0000
     atom:   30    charge:    3.9723    magn:    0.4224    constr:    0.0000
     atom:   31    charge:    3.9725    magn:    0.4204    constr:    0.0000
     atom:   32    charge:    3.9766    magn:    0.4187    constr:    0.0000
     atom:   33    charge:    3.9680    magn:    0.4150    constr:    0.0000
     atom:   34    charge:    3.9723    magn:    0.4225    constr:    0.0000
     atom:   35    charge:    3.9705    magn:    0.4030    constr:    0.0000
     atom:   36    charge:    3.9688    magn:    0.4227    constr:    0.0000
     atom:   37    charge:    2.0388    magn:    0.1860    constr:    0.0000

     total cpu time spent up to now is      986.7 secs

     total energy              =   -3656.56819460 Ry
     Harris-Foulkes estimate   =   -3656.57327307 Ry
     estimated scf accuracy    <       0.09053385 Ry

     total magnetization       =    22.54 Bohr mag/cell
     absolute magnetization    =    27.44 Bohr mag/cell

     iteration # 13     ecut=    44.10 Ry     beta=0.10
     Davidson diagonalization with overlap
     ethr =  2.47E-05,  avg # of iterations =  3.5

     negative rho (up, down):  3.837E-04 4.068E-04
 
     Adding external electric field

     Computed dipole along edir(3) : 
        Dipole               -0.1331 Ry au,         -0.3384 Debye
        Dipole field         -0.0002 Ry au
 
        Potential amp.        0.0185 Ry
        Total length         38.9923 bohr
 
 
     Adding external electric field

     Computed dipole along edir(3) : 
        Dipole               -0.1331 Ry au,         -0.3384 Debye
        Dipole field         -0.0002 Ry au
 
        Potential amp.        0.0185 Ry
        Total length         38.9923 bohr
 
 
     Magnetic moment per site:
     atom:    1    charge:    3.9695    magn:    0.4083    constr:    0.0000
     atom:    2    charge:    3.9717    magn:    0.4116    constr:    0.0000
     atom:    3    charge:    3.9713    magn:    0.4159    constr:    0.0000
     atom:    4    charge:    3.9763    magn:    0.4093    constr:    0.0000
     atom:    5    charge:    3.9695    magn:    0.4083    constr:    0.0000
     atom:    6    charge:    3.9717    magn:    0.4116    constr:    0.0000
     atom:    7    charge:    3.9714    magn:    0.4120    constr:    0.0000
     atom:    8    charge:    3.9695    magn:    0.4115    constr:    0.0000
     atom:    9    charge:    3.9692    magn:    0.4069    constr:    0.0000
     atom:   10    charge:    3.9719    magn:    0.4120    constr:    0.0000
     atom:   11    charge:    3.9714    magn:    0.4120    constr:    0.0000
     atom:   12    charge:    3.9695    magn:    0.4115    constr:    0.0000
     atom:   13    charge:    3.9695    magn:    0.4062    constr:    0.0000
     atom:   14    charge:    3.9719    magn:    0.4138    constr:    0.0000
     atom:   15    charge:    3.9717    magn:    0.4110    constr:    0.0000
     atom:   16    charge:    3.9649    magn:    0.3951    constr:    0.0000
     atom:   17    charge:    3.9694    magn:    0.4062    constr:    0.0000
     atom:   18    charge:    3.9717    magn:    0.4138    constr:    0.0000
     atom:   19    charge:    3.9717    magn:    0.4110    constr:    0.0000
     atom:   20    charge:    3.9649    magn:    0.3951    constr:    0.0000
     atom:   21    charge:    3.9695    magn:    0.4062    constr:    0.0000
     atom:   22    charge:    3.9719    magn:    0.4138    constr:    0.0000
     atom:   23    charge:    3.9725    magn:    0.4112    constr:    0.0000
     atom:   24    charge:    3.9689    magn:    0.4128    constr:    0.0000
     atom:   25    charge:    3.9696    magn:    0.4070    constr:    0.0000
     atom:   26    charge:    3.9719    magn:    0.4027    constr:    0.0000
     atom:   27    charge:    3.9710    magn:    0.3944    constr:    0.0000
     atom:   28    charge:    3.9692    magn:    0.4156    constr:    0.0000
     atom:   29    charge:    3.9697    magn:    0.4064    constr:    0.0000
     atom:   30    charge:    3.9712    magn:    0.4150    constr:    0.0000
     atom:   31    charge:    3.9724    magn:    0.4128    constr:    0.0000
     atom:   32    charge:    3.9760    magn:    0.4114    constr:    0.0000
     atom:   33    charge:    3.9697    magn:    0.4064    constr:    0.0000
     atom:   34    charge:    3.9712    magn:    0.4150    constr:    0.0000
     atom:   35    charge:    3.9710    magn:    0.3944    constr:    0.0000
     atom:   36    charge:    3.9692    magn:    0.4156    constr:    0.0000
     atom:   37    charge:    2.0366    magn:    0.1752    constr:    0.0000

     total cpu time spent up to now is     1065.2 secs

     total energy              =   -3656.56854038 Ry
     Harris-Foulkes estimate   =   -3656.57148840 Ry
     estimated scf accuracy    <       0.04771381 Ry

     total magnetization       =    22.60 Bohr mag/cell
     absolute magnetization    =    27.37 Bohr mag/cell

     iteration # 14     ecut=    44.10 Ry     beta=0.10
     Davidson diagonalization with overlap
     ethr =  1.30E-05,  avg # of iterations =  1.8

     negative rho (up, down):  3.687E-04 3.749E-04
 
     Adding external electric field

     Computed dipole along edir(3) : 
        Dipole               -0.1486 Ry au,         -0.3777 Debye
        Dipole field         -0.0003 Ry au
 
        Potential amp.        0.0207 Ry
        Total length         38.9923 bohr
 
 
     Adding external electric field

     Computed dipole along edir(3) : 
        Dipole               -0.1486 Ry au,         -0.3777 Debye
        Dipole field         -0.0003 Ry au
 
        Potential amp.        0.0207 Ry
        Total length         38.9923 bohr
 
 
     Magnetic moment per site:
     atom:    1    charge:    3.9702    magn:    0.4046    constr:    0.0000
     atom:    2    charge:    3.9718    magn:    0.4076    constr:    0.0000
     atom:    3    charge:    3.9712    magn:    0.4113    constr:    0.0000
     atom:    4    charge:    3.9759    magn:    0.4053    constr:    0.0000
     atom:    5    charge:    3.9702    magn:    0.4046    constr:    0.0000
     atom:    6    charge:    3.9718    magn:    0.4076    constr:    0.0000
     atom:    7    charge:    3.9712    magn:    0.4079    constr:    0.0000
     atom:    8    charge:    3.9704    magn:    0.4092    constr:    0.0000
     atom:    9    charge:    3.9702    magn:    0.4027    constr:    0.0000
     atom:   10    charge:    3.9719    magn:    0.4081    constr:    0.0000
     atom:   11    charge:    3.9712    magn:    0.4079    constr:    0.0000
     atom:   12    charge:    3.9704    magn:    0.4092    constr:    0.0000
     atom:   13    charge:    3.9698    magn:    0.4024    constr:    0.0000
     atom:   14    charge:    3.9713    magn:    0.4101    constr:    0.0000
     atom:   15    charge:    3.9712    magn:    0.4077    constr:    0.0000
     atom:   16    charge:    3.9650    magn:    0.3857    constr:    0.0000
     atom:   17    charge:    3.9702    magn:    0.4024    constr:    0.0000
     atom:   18    charge:    3.9715    magn:    0.4105    constr:    0.0000
     atom:   19    charge:    3.9712    magn:    0.4077    constr:    0.0000
     atom:   20    charge:    3.9650    magn:    0.3857    constr:    0.0000
     atom:   21    charge:    3.9698    magn:    0.4024    constr:    0.0000
     atom:   22    charge:    3.9713    magn:    0.4101    constr:    0.0000
     atom:   23    charge:    3.9716    magn:    0.4071    constr:    0.0000
     atom:   24    charge:    3.9695    magn:    0.4097    constr:    0.0000
     atom:   25    charge:    3.9696    magn:    0.4033    constr:    0.0000
     atom:   26    charge:    3.9720    magn:    0.3988    constr:    0.0000
     atom:   27    charge:    3.9707    magn:    0.3899    constr:    0.0000
     atom:   28    charge:    3.9702    magn:    0.4127    constr:    0.0000
     atom:   29    charge:    3.9702    magn:    0.4026    constr:    0.0000
     atom:   30    charge:    3.9714    magn:    0.4106    constr:    0.0000
     atom:   31    charge:    3.9724    magn:    0.4091    constr:    0.0000
     atom:   32    charge:    3.9762    magn:    0.4080    constr:    0.0000
     atom:   33    charge:    3.9702    magn:    0.4026    constr:    0.0000
     atom:   34    charge:    3.9714    magn:    0.4106    constr:    0.0000
     atom:   35    charge:    3.9707    magn:    0.3900    constr:    0.0000
     atom:   36    charge:    3.9702    magn:    0.4127    constr:    0.0000
     atom:   37    charge:    2.0354    magn:    0.1672    constr:    0.0000

     total cpu time spent up to now is     1135.9 secs

     total energy              =   -3656.56951804 Ry
     Harris-Foulkes estimate   =   -3656.57033269 Ry
     estimated scf accuracy    <       0.02432840 Ry

     total magnetization       =    22.45 Bohr mag/cell
     absolute magnetization    =    27.23 Bohr mag/cell

     iteration # 15     ecut=    44.10 Ry     beta=0.10
     Davidson diagonalization with overlap
     ethr =  6.65E-06,  avg # of iterations =  3.7

     negative rho (up, down):  3.570E-04 3.491E-04
 
     Adding external electric field

     Computed dipole along edir(3) : 
        Dipole               -0.1503 Ry au,         -0.3820 Debye
        Dipole field         -0.0003 Ry au
 
        Potential amp.        0.0209 Ry
        Total length         38.9923 bohr
 
 
     Adding external electric field

     Computed dipole along edir(3) : 
        Dipole               -0.1503 Ry au,         -0.3820 Debye
        Dipole field         -0.0003 Ry au
 
        Potential amp.        0.0209 Ry
        Total length         38.9923 bohr
 
 
     Magnetic moment per site:
     atom:    1    charge:    3.9704    magn:    0.4011    constr:    0.0000
     atom:    2    charge:    3.9709    magn:    0.4044    constr:    0.0000
     atom:    3    charge:    3.9711    magn:    0.4067    constr:    0.0000
     atom:    4    charge:    3.9767    magn:    0.4006    constr:    0.0000
     atom:    5    charge:    3.9704    magn:    0.4012    constr:    0.0000
     atom:    6    charge:    3.9709    magn:    0.4044    constr:    0.0000
     atom:    7    charge:    3.9711    magn:    0.4038    constr:    0.0000
     atom:    8    charge:    3.9709    magn:    0.4068    constr:    0.0000
     atom:    9    charge:    3.9705    magn:    0.3989    constr:    0.0000
     atom:   10    charge:    3.9710    magn:    0.4047    constr:    0.0000
     atom:   11    charge:    3.9711    magn:    0.4038    constr:    0.0000
     atom:   12    charge:    3.9709    magn:    0.4068    constr:    0.0000
     atom:   13    charge:    3.9709    magn:    0.3981    constr:    0.0000
     atom:   14    charge:    3.9714    magn:    0.4062    constr:    0.0000
     atom:   15    charge:    3.9709    magn:    0.4042    constr:    0.0000
     atom:   16    charge:    3.9651    magn:    0.3769    constr:    0.0000
     atom:   17    charge:    3.9706    magn:    0.3988    constr:    0.0000
     atom:   18    charge:    3.9715    magn:    0.4071    constr:    0.0000
     atom:   19    charge:    3.9709    magn:    0.4042    constr:    0.0000
     atom:   20    charge:    3.9651    magn:    0.3769    constr:    0.0000
     atom:   21    charge:    3.9709    magn:    0.3981    constr:    0.0000
     atom:   22    charge:    3.9714    magn:    0.4062    constr:    0.0000
     atom:   23    charge:    3.9715    magn:    0.4025    constr:    0.0000
     atom:   24    charge:    3.9703    magn:    0.4063    constr:    0.0000
     atom:   25    charge:    3.9708    magn:    0.3989    constr:    0.0000
     atom:   26    charge:    3.9716    magn:    0.3953    constr:    0.0000
     atom:   27    charge:    3.9705    magn:    0.3856    constr:    0.0000
     atom:   28    charge:    3.9709    magn:    0.4099    constr:    0.0000
     atom:   29    charge:    3.9704    magn:    0.3990    constr:    0.0000
     atom:   30    charge:    3.9710    magn:    0.4067    constr:    0.0000
     atom:   31    charge:    3.9716    magn:    0.4059    constr:    0.0000
     atom:   32    charge:    3.9764    magn:    0.4046    constr:    0.0000
     atom:   33    charge:    3.9704    magn:    0.3990    constr:    0.0000
     atom:   34    charge:    3.9710    magn:    0.4067    constr:    0.0000
     atom:   35    charge:    3.9705    magn:    0.3856    constr:    0.0000
     atom:   36    charge:    3.9709    magn:    0.4099    constr:    0.0000
     atom:   37    charge:    2.0349    magn:    0.1599    constr:    0.0000

     total cpu time spent up to now is     1215.8 secs

     total energy              =   -3656.57019756 Ry
     Harris-Foulkes estimate   =   -3656.57024682 Ry
     estimated scf accuracy    <       0.01286562 Ry

     total magnetization       =    22.35 Bohr mag/cell
     absolute magnetization    =    27.07 Bohr mag/cell

     iteration # 16     ecut=    44.10 Ry     beta=0.10
     Davidson diagonalization with overlap
     ethr =  3.52E-06,  avg # of iterations =  5.3

     negative rho (up, down):  3.466E-04 3.259E-04
 
     Adding external electric field

     Computed dipole along edir(3) : 
        Dipole               -0.1350 Ry au,         -0.3430 Debye
        Dipole field         -0.0002 Ry au
 
        Potential amp.        0.0188 Ry
        Total length         38.9923 bohr
 
 
     Adding external electric field

     Computed dipole along edir(3) : 
        Dipole               -0.1350 Ry au,         -0.3430 Debye
        Dipole field         -0.0002 Ry au
 
        Potential amp.        0.0188 Ry
        Total length         38.9923 bohr
 
 
     Magnetic moment per site:
     atom:    1    charge:    3.9711    magn:    0.3985    constr:    0.0000
     atom:    2    charge:    3.9708    magn:    0.4018    constr:    0.0000
     atom:    3    charge:    3.9705    magn:    0.4036    constr:    0.0000
     atom:    4    charge:    3.9767    magn:    0.3976    constr:    0.0000
     atom:    5    charge:    3.9711    magn:    0.3985    constr:    0.0000
     atom:    6    charge:    3.9708    magn:    0.4018    constr:    0.0000
     atom:    7    charge:    3.9707    magn:    0.4011    constr:    0.0000
     atom:    8    charge:    3.9719    magn:    0.4053    constr:    0.0000
     atom:    9    charge:    3.9712    magn:    0.3961    constr:    0.0000
     atom:   10    charge:    3.9709    magn:    0.4021    constr:    0.0000
     atom:   11    charge:    3.9707    magn:    0.4011    constr:    0.0000
     atom:   12    charge:    3.9719    magn:    0.4053    constr:    0.0000
     atom:   13    charge:    3.9710    magn:    0.3955    constr:    0.0000
     atom:   14    charge:    3.9707    magn:    0.4039    constr:    0.0000
     atom:   15    charge:    3.9705    magn:    0.4021    constr:    0.0000
     atom:   16    charge:    3.9645    magn:    0.3695    constr:    0.0000
     atom:   17    charge:    3.9713    magn:    0.3961    constr:    0.0000
     atom:   18    charge:    3.9710    magn:    0.4052    constr:    0.0000
     atom:   19    charge:    3.9705    magn:    0.4021    constr:    0.0000
     atom:   20    charge:    3.9645    magn:    0.3695    constr:    0.0000
     atom:   21    charge:    3.9710    magn:    0.3955    constr:    0.0000
     atom:   22    charge:    3.9707    magn:    0.4039    constr:    0.0000
     atom:   23    charge:    3.9711    magn:    0.3994    constr:    0.0000
     atom:   24    charge:    3.9712    magn:    0.4040    constr:    0.0000
     atom:   25    charge:    3.9709    magn:    0.3964    constr:    0.0000
     atom:   26    charge:    3.9711    magn:    0.3931    constr:    0.0000
     atom:   27    charge:    3.9701    magn:    0.3825    constr:    0.0000
     atom:   28    charge:    3.9718    magn:    0.4080    constr:    0.0000
     atom:   29    charge:    3.9712    magn:    0.3962    constr:    0.0000
     atom:   30    charge:    3.9707    magn:    0.4038    constr:    0.0000
     atom:   31    charge:    3.9713    magn:    0.4036    constr:    0.0000
     atom:   32    charge:    3.9768    magn:    0.4022    constr:    0.0000
     atom:   33    charge:    3.9711    magn:    0.3962    constr:    0.0000
     atom:   34    charge:    3.9707    magn:    0.4038    constr:    0.0000
     atom:   35    charge:    3.9701    magn:    0.3825    constr:    0.0000
     atom:   36    charge:    3.9718    magn:    0.4080    constr:    0.0000
     atom:   37    charge:    2.0343    magn:    0.1537    constr:    0.0000

     total cpu time spent up to now is     1301.1 secs

     total energy              =   -3656.57075474 Ry
     Harris-Foulkes estimate   =   -3656.57065361 Ry
     estimated scf accuracy    <       0.01294778 Ry

     total magnetization       =    22.28 Bohr mag/cell
     absolute magnetization    =    26.94 Bohr mag/cell

     iteration # 17     ecut=    44.10 Ry     beta=0.10
     Davidson diagonalization with overlap
     ethr =  3.52E-06,  avg # of iterations =  2.1

     negative rho (up, down):  3.386E-04 3.062E-04
 
     Adding external electric field

     Computed dipole along edir(3) : 
        Dipole               -0.1470 Ry au,         -0.3736 Debye
        Dipole field         -0.0003 Ry au
 
        Potential amp.        0.0204 Ry
        Total length         38.9923 bohr
 
 
     Adding external electric field

     Computed dipole along edir(3) : 
        Dipole               -0.1470 Ry au,         -0.3736 Debye
        Dipole field         -0.0003 Ry au
 
        Potential amp.        0.0204 Ry
        Total length         38.9923 bohr
 
 
     Magnetic moment per site:
     atom:    1    charge:    3.9720    magn:    0.3938    constr:    0.0000
     atom:    2    charge:    3.9699    magn:    0.3974    constr:    0.0000
     atom:    3    charge:    3.9700    magn:    0.3977    constr:    0.0000
     atom:    4    charge:    3.9770    magn:    0.3920    constr:    0.0000
     atom:    5    charge:    3.9720    magn:    0.3938    constr:    0.0000
     atom:    6    charge:    3.9699    magn:    0.3974    constr:    0.0000
     atom:    7    charge:    3.9701    magn:    0.3959    constr:    0.0000
     atom:    8    charge:    3.9731    magn:    0.4024    constr:    0.0000
     atom:    9    charge:    3.9718    magn:    0.3910    constr:    0.0000
     atom:   10    charge:    3.9698    magn:    0.3977    constr:    0.0000
     atom:   11    charge:    3.9701    magn:    0.3959    constr:    0.0000
     atom:   12    charge:    3.9731    magn:    0.4024    constr:    0.0000
     atom:   13    charge:    3.9718    magn:    0.3902    constr:    0.0000
     atom:   14    charge:    3.9699    magn:    0.3993    constr:    0.0000
     atom:   15    charge:    3.9701    magn:    0.3977    constr:    0.0000
     atom:   16    charge:    3.9654    magn:    0.3561    constr:    0.0000
     atom:   17    charge:    3.9720    magn:    0.3914    constr:    0.0000
     atom:   18    charge:    3.9702    magn:    0.4014    constr:    0.0000
     atom:   19    charge:    3.9701    magn:    0.3977    constr:    0.0000
     atom:   20    charge:    3.9654    magn:    0.3561    constr:    0.0000
     atom:   21    charge:    3.9718    magn:    0.3902    constr:    0.0000
     atom:   22    charge:    3.9699    magn:    0.3993    constr:    0.0000
     atom:   23    charge:    3.9704    magn:    0.3937    constr:    0.0000
     atom:   24    charge:    3.9726    magn:    0.3995    constr:    0.0000
     atom:   25    charge:    3.9717    magn:    0.3911    constr:    0.0000
     atom:   26    charge:    3.9704    magn:    0.3888    constr:    0.0000
     atom:   27    charge:    3.9697    magn:    0.3766    constr:    0.0000
     atom:   28    charge:    3.9730    magn:    0.4045    constr:    0.0000
     atom:   29    charge:    3.9718    magn:    0.3912    constr:    0.0000
     atom:   30    charge:    3.9698    magn:    0.3988    constr:    0.0000
     atom:   31    charge:    3.9710    magn:    0.3992    constr:    0.0000
     atom:   32    charge:    3.9771    magn:    0.3981    constr:    0.0000
     atom:   33    charge:    3.9718    magn:    0.3912    constr:    0.0000
     atom:   34    charge:    3.9698    magn:    0.3988    constr:    0.0000
     atom:   35    charge:    3.9697    magn:    0.3766    constr:    0.0000
     atom:   36    charge:    3.9730    magn:    0.4045    constr:    0.0000
     atom:   37    charge:    2.0344    magn:    0.1430    constr:    0.0000

     total cpu time spent up to now is     1372.7 secs

     total energy              =   -3656.57163224 Ry
     Harris-Foulkes estimate   =   -3656.57142460 Ry
     estimated scf accuracy    <       0.06655936 Ry

     total magnetization       =    22.30 Bohr mag/cell
     absolute magnetization    =    26.90 Bohr mag/cell

     iteration # 18     ecut=    44.10 Ry     beta=0.10
     Davidson diagonalization with overlap
     ethr =  3.52E-06,  avg # of iterations =  1.5

     negative rho (up, down):  3.315E-04 2.903E-04
 
     Adding external electric field

     Computed dipole along edir(3) : 
        Dipole               -0.1481 Ry au,         -0.3764 Debye
        Dipole field         -0.0003 Ry au
 
        Potential amp.        0.0206 Ry
        Total length         38.9923 bohr
 
 
     Adding external electric field

     Computed dipole along edir(3) : 
        Dipole               -0.1481 Ry au,         -0.3764 Debye
        Dipole field         -0.0003 Ry au
 
        Potential amp.        0.0206 Ry
        Total length         38.9923 bohr
 
 
     Magnetic moment per site:
     atom:    1    charge:    3.9718    magn:    0.3927    constr:    0.0000
     atom:    2    charge:    3.9698    magn:    0.3962    constr:    0.0000
     atom:    3    charge:    3.9696    magn:    0.3959    constr:    0.0000
     atom:    4    charge:    3.9773    magn:    0.3900    constr:    0.0000
     atom:    5    charge:    3.9718    magn:    0.3927    constr:    0.0000
     atom:    6    charge:    3.9698    magn:    0.3962    constr:    0.0000
     atom:    7    charge:    3.9698    magn:    0.3945    constr:    0.0000
     atom:    8    charge:    3.9736    magn:    0.4018    constr:    0.0000
     atom:    9    charge:    3.9720    magn:    0.3895    constr:    0.0000
     atom:   10    charge:    3.9700    magn:    0.3962    constr:    0.0000
     atom:   11    charge:    3.9698    magn:    0.3945    constr:    0.0000
     atom:   12    charge:    3.9736    magn:    0.4018    constr:    0.0000
     atom:   13    charge:    3.9720    magn:    0.3886    constr:    0.0000
     atom:   14    charge:    3.9698    magn:    0.3980    constr:    0.0000
     atom:   15    charge:    3.9697    magn:    0.3968    constr:    0.0000
     atom:   16    charge:    3.9652    magn:    0.3509    constr:    0.0000
     atom:   17    charge:    3.9720    magn:    0.3902    constr:    0.0000
[...]
     9.4053   9.4685   9.6017   9.6795   9.8808  10.0305  10.1977  10.2908
    10.3513  10.5866  10.6386  10.7188  10.8441  10.9837  11.0062  11.0781
    11.1643  11.1955  11.3330  11.5186  11.5657  11.6545  11.7449  11.8311
    11.9562  11.9713  12.1422  12.2265  12.2522  12.4154  12.4640  12.6035
    12.6884  12.8016  12.9660  13.0777  13.0928  13.1080  13.1538  13.3232
    13.4038  13.4229  13.4992

 ------ SPIN DOWN ----------


          k = 0.0000 0.0000 0.0000 ( 34645 PWs)   bands (ev):

   -16.7702  -6.2988  -4.9593  -3.4677  -3.4643  -3.3314  -3.1944  -3.1614
    -3.1592  -3.1472  -2.9615  -2.9580  -2.7626  -2.3407  -2.3244  -2.3227
    -2.2548  -2.1213  -2.1210  -2.0151  -1.4884  -1.4852  -1.4820  -1.3405
    -1.3358  -1.2729  -0.9450  -0.9329  -0.9324  -0.9184  -0.9085  -0.9015
    -0.7954  -0.7927  -0.7851  -0.7843  -0.7680  -0.7529  -0.7468  -0.7345
    -0.7325  -0.7324  -0.6989  -0.6976  -0.6928  -0.6860  -0.6859  -0.5189
    -0.4401  -0.4390  -0.4045  -0.4025  -0.3808  -0.3785  -0.3782  -0.2955
    -0.2695  -0.2693  -0.0205  -0.0106  -0.0086  -0.0029   0.0024   0.0025
     0.1284   0.1295   0.1999   0.2000   0.2654   0.2759   0.3022   0.3048
     0.3165   0.3243   0.3820   0.3986   0.5274   0.5327   0.5649   0.5729
     0.5777   0.5837   0.6027   0.6079   0.6157   0.6221   0.6235   0.6482
     0.6526   0.6566   0.6630   0.6634   0.6894   0.7100   0.7115   0.7293
     0.7352   0.7617   0.7618   0.7738   0.7763   0.7952   0.7960   0.8096
     0.8136   0.8221   0.8264   0.8377   0.8430   0.8925   0.8934   0.9340
     0.9345   0.9777   1.0535   1.0554   1.0928   1.1140   1.1196   1.1649
     1.2048   1.2061   1.2163   1.2703   1.2717   1.2825   1.3693   1.3700
     1.4641   1.4648   1.4689   1.5260   1.5613   1.5692   1.5701   1.5893
     1.6803   1.6829   1.6849   1.7110   1.7153   1.7156   1.7278   1.7295
     1.7607   1.7631   1.7767   1.8283   1.8479   1.8694   1.8727   1.8949
     1.9103   1.9111   1.9326   1.9453   1.9454   1.9468   1.9483   1.9636
     1.9708   1.9831   1.9869   1.9896   2.0089   2.0108   2.0260   2.0476
     2.0488   2.0619   2.0632   2.0767   2.0823   2.0832   2.1002   2.1010
     2.1247   2.1459   2.1470   2.1481   2.1484   2.1573   2.1882   2.1927
     2.1944   2.2211   2.2244   2.2319   2.2333   2.2686   2.2746   2.3407
     2.3464   2.3503   2.3777   2.3793   2.3901   2.5338   2.5353   2.5866
     2.8247   3.1420   3.1448   3.1683   3.4953   3.5016   4.4328   5.3461
     5.3466   5.3592   5.6780   5.6811   6.2516   6.5600   6.8832   7.0520
     7.0553   7.2653   7.2970   7.2975   7.4855   7.6901   7.6972   7.6994
     7.7725   7.7860   8.0202   8.0341   8.0487   8.3329   8.3350   8.5591
     8.9366   9.0783   9.0811   9.7507   9.7581   9.7617   9.7715   9.7742
     9.8554   9.8786   9.8832   9.9615  10.1058  10.1130  10.1141  10.1184
    10.1207  10.2290  10.5929  10.9275  10.9477  10.9527  10.9656  10.9736
    10.9860  11.2123  11.3166  11.3645  11.3688  11.5635  11.5655  11.5704
    11.5716  11.6083  11.6585  11.7722  11.7835  11.7868  11.8004  11.8311
    12.1621  12.1856  12.2039  12.6493  12.6531  12.7492  12.8250  12.8395
    12.8449  13.3443  13.5208

          k = 0.0000 0.0510 0.0000 ( 34862 PWs)   bands (ev):

   -16.7700  -5.8951  -4.7588  -4.5866  -3.7796  -3.7258  -3.6395  -3.2480
    -3.1650  -2.9731  -2.7205  -2.5116  -2.4480  -2.1960  -2.1859  -1.9947
    -1.9415  -1.8577  -1.7805  -1.7317  -1.7204  -1.4320  -1.4260  -1.3190
    -1.3006  -1.2904  -1.2571  -1.2330  -1.2006  -1.1793  -1.1492  -1.0894
    -0.9663  -0.9255  -0.9147  -0.9062  -0.8836  -0.7733  -0.7616  -0.7491
    -0.7362  -0.7118  -0.6699  -0.6149  -0.5894  -0.5441  -0.4743  -0.4528
    -0.4306  -0.3996  -0.3392  -0.3308  -0.2905  -0.2835  -0.2685  -0.2496
    -0.2248  -0.1310  -0.1237  -0.0988  -0.0891  -0.0292   0.0122   0.0302
     0.1315   0.1424   0.1589   0.1659   0.1883   0.2196   0.2233   0.2612
     0.3073   0.3120   0.3203   0.3469   0.3672   0.3970   0.4114   0.4256
     0.4378   0.4975   0.5141   0.5351   0.5483   0.5654   0.5787   0.5966
     0.6033   0.6126   0.6352   0.6526   0.6683   0.6747   0.6956   0.7098
     0.7166   0.7263   0.7624   0.7668   0.7790   0.8143   0.8180   0.8301
     0.8481   0.8526   0.8710   0.8847   0.9043   0.9197   0.9350   0.9409
     0.9517   0.9975   1.0176   1.0396   1.0656   1.0803   1.1139   1.1523
     1.1593   1.2231   1.2368   1.2573   1.2647   1.2815   1.3010   1.3318
     1.3436   1.3503   1.3587   1.3792   1.3955   1.4320   1.4597   1.4957
     1.5215   1.5729   1.5871   1.5968   1.6037   1.6118   1.6790   1.6917
     1.7127   1.7287   1.7383   1.7589   1.7696   1.7735   1.7944   1.8202
     1.8295   1.8553   1.8932   1.9075   1.9177   1.9371   1.9449   1.9568
     1.9747   1.9921   2.0241   2.0249   2.0587   2.0716   2.0850   2.1135
     2.1235   2.1510   2.1515   2.1667   2.1684   2.2006   2.2140   2.2401
     2.2675   2.2689   2.2745   2.2945   2.3006   2.3041   2.3315   2.3344
     2.3668   2.3920   2.3972   2.4103   2.4347   2.4571   2.4671   2.5227
     2.5667   2.6279   2.8328   2.8959   2.9194   2.9788   3.1134   3.1431
     3.3245   3.3486   3.6482   3.8617   4.1584   4.2750   4.3167   4.6176
     4.6337   4.8167   5.0782   5.1669   5.3051   5.4890   5.7779   5.9808
     6.3899   6.5424   6.6378   6.8171   6.9482   7.0717   7.2245   7.4645
     7.6097   7.7825   8.1172   8.2754   8.4391   8.5715   8.9776   9.0073
     9.0545   9.1322   9.1944   9.1952   9.2434   9.3336   9.3630   9.4295
     9.5426   9.5826   9.6410   9.8292  10.0220  10.1123  10.3001  10.4304
    10.4849  10.6697  10.7153  10.7685  10.8929  11.0565  11.0772  11.1672
    11.2396  11.3065  11.4035  11.5532  11.5925  11.6665  11.7640  11.8653
    12.0404  12.0535  12.2455  12.2776  12.3529  12.5097  12.5694  12.6295
    12.7080  12.8613  12.9831  13.0874  13.1120  13.1695  13.2202  13.4041
    13.4521  13.4687  13.5459

          k = 0.0442 0.0255 0.0000 ( 34862 PWs)   bands (ev):

   -16.7700  -5.8952  -4.7596  -4.5867  -3.7781  -3.7256  -3.6406  -3.2445
    -3.1673  -2.9738  -2.7202  -2.5104  -2.4496  -2.1952  -2.1841  -2.0007
    -1.9438  -1.8570  -1.7785  -1.7341  -1.7221  -1.4261  -1.4231  -1.3202
    -1.2994  -1.2914  -1.2567  -1.2337  -1.2047  -1.1798  -1.1528  -1.0954
    -0.9666  -0.9220  -0.9088  -0.8998  -0.8820  -0.7661  -0.7637  -0.7457
    -0.7335  -0.7086  -0.6687  -0.6191  -0.5896  -0.5454  -0.4742  -0.4536
    -0.4325  -0.3992  -0.3364  -0.3312  -0.2920  -0.2803  -0.2671  -0.2494
    -0.2266  -0.1285  -0.1209  -0.0884  -0.0871  -0.0274   0.0059   0.0306
     0.1366   0.1432   0.1570   0.1589   0.1806   0.2190   0.2209   0.2600
     0.3123   0.3144   0.3238   0.3460   0.3702   0.3979   0.4239   0.4243
     0.4408   0.4879   0.4896   0.5248   0.5513   0.5602   0.5749   0.6039
     0.6056   0.6175   0.6424   0.6505   0.6668   0.6744   0.6916   0.7092
     0.7172   0.7258   0.7596   0.7639   0.7783   0.8161   0.8175   0.8314
     0.8472   0.8491   0.8677   0.8846   0.9041   0.9169   0.9328   0.9465
     0.9466   0.9980   1.0282   1.0396   1.0662   1.0817   1.1178   1.1534
     1.1589   1.2214   1.2311   1.2577   1.2597   1.2792   1.3030   1.3289
     1.3437   1.3485   1.3557   1.3753   1.3936   1.4333   1.4573   1.4885
     1.5192   1.5730   1.5933   1.5944   1.6038   1.6109   1.6819   1.6933
     1.7131   1.7240   1.7420   1.7578   1.7717   1.7738   1.7905   1.8197
     1.8317   1.8586   1.8930   1.9072   1.9195   1.9370   1.9457   1.9586
     1.9768   1.9903   2.0218   2.0235   2.0590   2.0708   2.0854   2.1123
     2.1215   2.1518   2.1522   2.1650   2.1672   2.1995   2.2108   2.2392
     2.2642   2.2674   2.2738   2.2961   2.2993   2.3064   2.3268   2.3422
     2.3704   2.3955   2.3996   2.4126   2.4397   2.4608   2.4648   2.5231
     2.5684   2.6216   2.8321   2.8983   2.9206   2.9764   3.1148   3.1433
     3.3277   3.3574   3.6520   3.8565   4.1571   4.2862   4.3133   4.6202
     4.6349   4.8200   5.0824   5.1672   5.3039   5.4878   5.7828   5.9949
     6.3841   6.5392   6.6327   6.8184   6.9486   7.0785   7.2251   7.4531
     7.5888   7.7738   8.1167   8.2746   8.4318   8.5374   8.9998   9.0149
     9.0735   9.1357   9.1942   9.1955   9.2428   9.3264   9.3635   9.4264
     9.5475   9.5759   9.6437   9.8429  10.0218  10.1090  10.3050  10.4404
    10.4886  10.6679  10.7165  10.7728  10.8904  11.0559  11.0722  11.1610
    11.2347  11.3056  11.3935  11.5542  11.5970  11.6683  11.7687  11.8667
    12.0448  12.0510  12.2470  12.2775  12.3584  12.5170  12.5641  12.6288
    12.7061  12.8826  12.9819  13.0872  13.1118  13.1714  13.2150  13.3906
    13.4497  13.4524  13.5483

          k = 0.0442 0.0765 0.0000 ( 34881 PWs)   bands (ev):

   -16.7699  -5.1443  -5.1303  -5.0820  -3.9730  -3.9434  -3.8361  -3.1836
    -3.0745  -2.8420  -2.2981  -2.2866  -2.2831  -2.1792  -2.1641  -1.9768
    -1.6736  -1.6648  -1.6619  -1.6446  -1.6360  -1.6340  -1.6084  -1.5829
    -1.5605  -1.3922  -1.3779  -1.2921  -1.1644  -1.1600  -1.1511  -1.0663
    -1.0558  -1.0535  -1.0297  -1.0111  -1.0051  -0.9562  -0.9381  -0.7927
    -0.5749  -0.5684  -0.5672  -0.5616  -0.5595  -0.5478  -0.5376  -0.5301
    -0.4728  -0.2462  -0.2289  -0.2223  -0.1752  -0.1703  -0.1522  -0.1498
    -0.1409  -0.1393  -0.0882  -0.0605  -0.0432   0.0153   0.0167   0.0218
     0.0749   0.0778   0.0794   0.1186   0.1361   0.1469   0.2009   0.2596
     0.2780   0.2965   0.3284   0.3712   0.3782   0.3808   0.4097   0.4109
     0.4158   0.4204   0.4223   0.4308   0.4540   0.4561   0.4668   0.4870
     0.4947   0.4980   0.5038   0.5219   0.5227   0.6675   0.6918   0.7309
     0.7369   0.7394   0.7467   0.7864   0.7938   0.8031   0.8123   0.8171
     0.8542   0.8582   0.8612   0.9175   0.9279   0.9536   0.9891   1.0197
     1.0227   1.0361   1.1060   1.1078   1.1215   1.1611   1.1685   1.1793
     1.1932   1.2221   1.2462   1.2582   1.2592   1.2670   1.2683   1.2955
     1.3084   1.3240   1.3384   1.3627   1.3914   1.4196   1.4310   1.4338
     1.5025   1.5087   1.5309   1.5444   1.5873   1.6022   1.6111   1.6156
     1.6474   1.6699   1.6827   1.6880   1.7103   1.7210   1.7232   1.7238
     1.7546   1.8059   1.8289   1.8397   1.8580   1.8943   1.8998   1.9322
     1.9843   1.9975   2.0710   2.0886   2.0918   2.1250   2.1257   2.1460
     2.1797   2.1871   2.2175   2.2435   2.2566   2.2733   2.2745   2.2762
     2.2993   2.3048   2.3205   2.3241   2.3294   2.3453   2.3480   2.4148
     2.4184   2.4284   2.4387   2.4430   2.4457   2.4601   2.5604   2.6975
     2.8180   3.0335   3.0397   3.0714   3.2861   3.3393   3.4120   3.6964
     3.8068   3.8644   3.9358   3.9872   4.0687   4.4443   4.5271   4.5532
     4.7728   4.8282   4.9701   5.0765   5.1664   5.2739   5.3297   5.3654
     5.4331   5.4999   5.5841   6.1599   6.6290   6.7545   7.3047   7.7208
     7.7275   7.7488   7.8772   7.8807   8.0691   8.4162   8.4658   8.5907
     8.9181   8.9402   9.0014   9.1544   9.1644   9.2437   9.2521   9.2830
     9.6439   9.7958   9.8063   9.9095  10.1770  10.3927  10.4510  10.8319
    10.8401  10.9543  11.2317  11.2505  11.2565  11.3359  11.3933  11.4563
    11.8401  11.8585  11.9004  11.9153  11.9355  11.9473  11.9818  11.9965
    12.1369  12.2252  12.2321  12.4145  12.6384  12.6710  12.7229  12.7432
    12.7770  12.7834  12.7900  12.8070  12.9688  13.0282  13.1413  13.1621
    13.2221  13.3453  13.7213

          k = 0.0442-0.0255 0.0000 ( 34862 PWs)   bands (ev):

   -16.7700  -5.8951  -4.7588  -4.5866  -3.7796  -3.7258  -3.6395  -3.2480
    -3.1650  -2.9731  -2.7205  -2.5116  -2.4480  -2.1960  -2.1859  -1.9947
    -1.9415  -1.8577  -1.7805  -1.7317  -1.7204  -1.4320  -1.4260  -1.3190
    -1.3006  -1.2904  -1.2571  -1.2330  -1.2006  -1.1793  -1.1492  -1.0894
    -0.9663  -0.9255  -0.9147  -0.9062  -0.8836  -0.7733  -0.7616  -0.7491
    -0.7362  -0.7118  -0.6699  -0.6149  -0.5894  -0.5441  -0.4743  -0.4528
    -0.4306  -0.3996  -0.3392  -0.3308  -0.2905  -0.2835  -0.2685  -0.2496
    -0.2248  -0.1310  -0.1237  -0.0988  -0.0891  -0.0292   0.0122   0.0302
     0.1315   0.1424   0.1589   0.1659   0.1883   0.2196   0.2233   0.2612
     0.3073   0.3120   0.3203   0.3469   0.3672   0.3970   0.4114   0.4256
     0.4378   0.4975   0.5141   0.5351   0.5483   0.5654   0.5787   0.5966
     0.6033   0.6126   0.6352   0.6526   0.6683   0.6747   0.6956   0.7098
     0.7166   0.7263   0.7624   0.7668   0.7790   0.8143   0.8180   0.8301
     0.8481   0.8526   0.8710   0.8847   0.9043   0.9197   0.9350   0.9409
     0.9517   0.9975   1.0176   1.0396   1.0656   1.0803   1.1139   1.1523
     1.1593   1.2231   1.2368   1.2573   1.2647   1.2815   1.3010   1.3318
     1.3436   1.3503   1.3587   1.3792   1.3955   1.4320   1.4597   1.4957
     1.5215   1.5729   1.5871   1.5968   1.6037   1.6118   1.6790   1.6917
     1.7127   1.7287   1.7383   1.7589   1.7696   1.7735   1.7944   1.8202
     1.8295   1.8553   1.8932   1.9075   1.9177   1.9371   1.9450   1.9568
     1.9747   1.9921   2.0241   2.0249   2.0587   2.0716   2.0850   2.1135
     2.1235   2.1510   2.1515   2.1667   2.1684   2.2006   2.2140   2.2401
     2.2675   2.2689   2.2745   2.2945   2.3006   2.3041   2.3315   2.3344
     2.3668   2.3920   2.3972   2.4103   2.4347   2.4571   2.4671   2.5227
     2.5667   2.6279   2.8328   2.8959   2.9194   2.9788   3.1134   3.1431
     3.3245   3.3486   3.6483   3.8617   4.1584   4.2751   4.3167   4.6176
     4.6337   4.8166   5.0782   5.1669   5.3051   5.4890   5.7779   5.9808
     6.3899   6.5424   6.6378   6.8169   6.9484   7.0718   7.2244   7.4645
     7.6097   7.7825   8.1171   8.2750   8.4395   8.5715   8.9776   9.0073
     9.0545   9.1321   9.1943   9.1964   9.2424   9.3335   9.3633   9.4293
     9.5426   9.5829   9.6407   9.8292  10.0220  10.1122  10.3000  10.4304
    10.4849  10.6693  10.7157  10.7687  10.8929  11.0567  11.0770  11.1671
    11.2397  11.3066  11.4033  11.5530  11.5929  11.6662  11.7643  11.8652
    12.0403  12.0535  12.2456  12.2777  12.3529  12.5096  12.5696  12.6293
    12.7083  12.8613  12.9827  13.0880  13.1107  13.1696  13.2204  13.4043
    13.4520  13.4686  13.5464

     the Fermi energy is     2.1716 ev

!    total energy              =   -3656.62434037 Ry
     Harris-Foulkes estimate   =   -3656.62431242 Ry
     estimated scf accuracy    <       0.00000029 Ry

     The total energy is the sum of the following terms:

     one-electron contribution =  -24413.51385042 Ry
     hartree contribution      =   12608.48348534 Ry
     xc contribution           =   -1514.31964485 Ry
     ewald contribution        =    9662.88785759 Ry
     electric field correction =       0.00003930 Ry
     smearing contrib. (-TS)   =      -0.16222733 Ry

     total magnetization       =    21.75 Bohr mag/cell
     absolute magnetization    =    25.43 Bohr mag/cell

     convergence has been achieved in  16 iterations

     Forces acting on atoms (Ry/au):


     negative rho (up, down):  2.962E-04 2.291E-04
     atom    1 type  1   force =     0.00055118   -0.00034024    0.00554052
     atom    2 type  1   force =     0.00023841    0.00187990   -0.00425859
     atom    3 type  1   force =    -0.00051301   -0.00029445    0.00028311
     atom    4 type  1   force =     0.00003792    0.00002347   -0.00181670
     atom    5 type  1   force =    -0.00001789    0.00065204    0.00554542
     atom    6 type  1   force =     0.00174770   -0.00073151   -0.00425764
     atom    7 type  1   force =     0.00002331    0.00039680   -0.00007508
     atom    8 type  1   force =    -0.00057287   -0.00031491    0.00015767
     atom    9 type  1   force =    -0.00009045   -0.00005711    0.00448917
     atom   10 type  1   force =     0.00070064    0.00040281   -0.00691327
     atom   11 type  1   force =     0.00035409   -0.00017980   -0.00007449
     atom   12 type  1   force =    -0.00055851   -0.00033983    0.00015914
     atom   13 type  1   force =     0.00006274    0.00015275    0.00449759
     atom   14 type  1   force =     0.00120388    0.00195622   -0.00404274
     atom   15 type  1   force =    -0.00008417   -0.00061099   -0.00060667
     atom   16 type  1   force =    -0.00041771   -0.00063615   -0.00058305
     atom   17 type  1   force =     0.00012376    0.00007920    0.00450055
     atom   18 type  1   force =     0.00064305    0.00037365   -0.00463926
     atom   19 type  1   force =    -0.00057227    0.00023401   -0.00060700
     atom   20 type  1   force =    -0.00076105   -0.00004449   -0.00058307
     atom   21 type  1   force =     0.00016605   -0.00002843    0.00450415
     atom   22 type  1   force =     0.00229690    0.00006285   -0.00404180
     atom   23 type  1   force =    -0.00010920   -0.00006554    0.00005636
     atom   24 type  1   force =    -0.00119492   -0.00069058   -0.00002440
     atom   25 type  1   force =    -0.00048551   -0.00028253    0.00563752
     atom   26 type  1   force =     0.00070079    0.00040479   -0.00617949
     atom   27 type  1   force =    -0.00012426    0.00000937   -0.00012194
     atom   28 type  1   force =    -0.00069129   -0.00031833   -0.00005799
     atom   29 type  1   force =     0.00002621    0.00004122    0.00455483
     atom   30 type  1   force =    -0.00008301   -0.00090481   -0.00437526
     atom   31 type  1   force =    -0.00032841   -0.00018883    0.00109000
     atom   32 type  1   force =    -0.00042522   -0.00024625    0.00064008
     atom   33 type  1   force =     0.00004240   -0.00000013    0.00455317
     atom   34 type  1   force =    -0.00082769    0.00038001   -0.00437482
     atom   35 type  1   force =    -0.00005538   -0.00011398   -0.00012212
     atom   36 type  1   force =    -0.00062250   -0.00043934   -0.00005792
     atom   37 type  2   force =    -0.00038370   -0.00022087    0.00160403

     Total force =     0.021658     Total SCF correction =     0.001972
 !ASE

     Writing output data file calc.save
 
     init_run     :     26.61s CPU     30.94s WALL (       1 calls)
     electrons    :  32675.50s CPU  37679.88s WALL (      17 calls)
     update_pot   :     36.72s CPU     38.91s WALL (      16 calls)
     forces       :    779.44s CPU    808.73s WALL (      17 calls)

     Called by init_run:
     wfcinit      :     17.69s CPU     21.35s WALL (       1 calls)
     potinit      :      0.87s CPU      0.95s WALL (       1 calls)

     Called by electrons:
     c_bands      :  21627.24s CPU  25438.83s WALL (     501 calls)
     sum_band     :   7973.70s CPU   8956.51s WALL (     501 calls)
     v_of_rho     :    173.28s CPU    199.84s WALL (     518 calls)
     newd         :   2950.19s CPU   3127.18s WALL (     518 calls)
     mix_rho      :     34.12s CPU     41.93s WALL (     501 calls)

     Called by c_bands:
     init_us_2    :    115.41s CPU    122.95s WALL (   10200 calls)
     cegterg      :  20958.40s CPU  24740.90s WALL (    5010 calls)

     Called by *egterg:
     h_psi        :  10902.91s CPU  13939.75s WALL (   13056 calls)
     s_psi        :   1738.86s CPU   1791.75s WALL (   13056 calls)
     g_psi        :     43.75s CPU     44.76s WALL (    8036 calls)
     cdiaghg      :   3491.83s CPU   3574.83s WALL (   12886 calls)

     Called by h_psi:
     add_vuspsi   :   1755.83s CPU   1813.32s WALL (   13056 calls)

     General routines
     calbec       :   2705.85s CPU   2769.56s WALL (   18236 calls)
     fft          :    161.64s CPU    189.73s WALL (   16211 calls)
     ffts         :      2.64s CPU      3.56s WALL (    2038 calls)
     fftw         :   5953.39s CPU   9523.28s WALL ( 7561966 calls)
     interpolate  :     19.50s CPU     28.13s WALL (    2038 calls)
     davcio       :      0.00s CPU      0.16s WALL (      10 calls)
 
     Parallel routines
     fft_scatter  :   3489.54s CPU   5497.99s WALL ( 7580215 calls)
 
     PWSCF        :     9h20m CPU       10h44m WALL

 
   This run was terminated on:   1:45:37  11Mar2017            

=------------------------------------------------------------------------------=
   JOB DONE.
=------------------------------------------------------------------------------=
