  python dir          : /home/vossj/suncat/lib/python2.7/site-packages/espresso
  espresso dir        : /home/vossj/suncat/esdld/espresso-dynpy-beef/bin
  pseudo dir          : /home/alatimer/bin/psp/esp_psp_w_gbrvRu/
  ase-espresso py git : ffa2778-git



     Program PWSCF v.5.1rc2 (svn rev. ) starts on 20Apr2018 at 13:26: 2 

     This program is part of the open-source Quantum ESPRESSO suite
     for quantum simulation of materials; please cite
         "P. Giannozzi et al., J. Phys.:Condens. Matter 21 395502 (2009);
          URL http://www.quantum-espresso.org", 
     in publications or presentations arising from this work. More details at
     http://www.quantum-espresso.org/quote

     Parallel version (MPI), running on    16 processors
     R & G space division:  proc/nbgrp/npool/nimage =      16
     Reading input from pw.inp
     Message from routine read_cards :
     DEPRECATED: no units specified in CELL_PARAMETERS card

     Current dimensions of program PWSCF are:
     Max number of different atomic species (ntypx) = 10
     Max number of k-points (npk) =  40000
     Max angular momentum in pseudopotentials (lmaxx) =  3
     Presently no symmetry can be used with electric field


     IMPORTANT: XC functional enforced from input :
     Exchange-correlation      = RPBE ( 1  4 28  4 0)
     Any further DFT definition will be discarded
     Please, verify this is what you really want


     Subspace diagonalization in iterative solution of the eigenvalue problem:
     a serial algorithm will be used

 
     Parallelization info
     --------------------
     sticks:   dense  smooth     PW     G-vecs:    dense   smooth      PW
     Min         367     147     39               123943    31337    4337
     Max         368     148     40               123966    31384    4354
     Sum        5877    2361    631              1983193   501747   69475
 
     Generating pointlists ...
     new r_m :   0.4125 (alat units)  0.7795 (a.u.) for type    1
     new r_m :   0.4125 (alat units)  0.7795 (a.u.) for type    2


     bravais-lattice index     =            0
     lattice parameter (alat)  =       1.8897  a.u.
     unit-cell volume          =   12682.1321 (a.u.)^3
     number of atoms/cell      =           37
     number of atomic types    =            2
     number of electrons       =       330.00
     number of Kohn-Sham states=          265
     kinetic-energy cutoff     =      44.0992  Ry
     charge density cutoff     =     440.9919  Ry
     convergence threshold     =      7.3E-07
     mixing beta               =       0.1000
     number of iterations used =           10  plain     mixing
     Exchange-correlation      = RPBE ( 1  4 28  4 0)
     nstep                     =           50


     celldm(1)=   1.889726  celldm(2)=   0.000000  celldm(3)=   0.000000
     celldm(4)=   0.000000  celldm(5)=   0.000000  celldm(6)=   0.000000

     crystal axes: (cart. coord. in units of alat)
               a(1) = (   6.191574   0.000000   0.000000 )  
               a(2) = (   0.000000   7.583099   0.000000 )  
               a(3) = (   0.000000   0.000000  40.026524 )  

     reciprocal axes: (cart. coord. in units 2 pi/alat)
               b(1) = (  0.161510  0.000000  0.000000 )  
               b(2) = (  0.000000  0.131872  0.000000 )  
               b(3) = (  0.000000  0.000000  0.024983 )  


     PseudoPot. # 1 for Co read from file:
     /home/alatimer/bin/psp/esp_psp_w_gbrvRu/Co.UPF
     MD5 check sum: f36dda9fe147c5f42efc2a4f7ec0da3d
     Pseudo is Ultrasoft + core correction, Zval =  9.0
     Generated by new atomic code, or converted to UPF format
     Using radial grid of  937 points,  3 beta functions with: 
                l(1) =   1
                l(2) =   2
                l(3) =   2
     Q(r) pseudized with  8 coefficients,  rinner =    1.000   1.000   1.000
                                                       1.000   1.000

     PseudoPot. # 2 for  O read from file:
     /home/alatimer/bin/psp/esp_psp_w_gbrvRu/O.UPF
     MD5 check sum: e057bbcf3229fb5d8c36c0c92f9568b4
     Pseudo is Ultrasoft + core correction, Zval =  6.0
     Generated using "atomic" code by A. Dal Corso  v.5.0.2 svn rev. 9415
     Using radial grid of 1095 points,  4 beta functions with: 
                l(1) =   0
                l(2) =   0
                l(3) =   1
                l(4) =   1
     Q(r) pseudized with 0 coefficients 


     atomic species   valence    mass     pseudopotential
        Co1            9.00    58.93320     Co( 1.00)
        O1             6.00    15.99940      O( 1.00)

     Starting magnetic structure 
     atomic species   magnetization
        Co1          0.444
        O1           0.667

     No symmetry found



   Cartesian axes

     site n.     atom                  positions (alat units)
         1           Co1 tau(   1) = (   4.1277161   1.2638498  24.0265242  )
         2           Co1 tau(   2) = (   4.1277161   3.7915494  24.0265242  )
         3           Co1 tau(   3) = (   4.1277161   6.3192490  24.0265242  )
         4           Co1 tau(   4) = (   2.0638581   0.0000000  23.2968402  )
         5           Co1 tau(   5) = (   2.0638581   2.5276996  23.2968402  )
         6           Co1 tau(   6) = (   2.0638581   5.0553992  23.2968402  )
         7           Co1 tau(   7) = (   0.0000000   1.2638498  22.5671562  )
         8           Co1 tau(   8) = (   0.0000000   3.7915494  22.5671562  )
         9           Co1 tau(   9) = (   0.0000000   6.3192490  22.5671562  )
        10           Co1 tau(  10) = (   4.1277161   0.0000000  21.8374721  )
        11           Co1 tau(  11) = (   4.1277161   2.5276996  21.8374721  )
        12           Co1 tau(  12) = (   4.1277161   5.0553992  21.8374721  )
        13           Co1 tau(  13) = (   2.0638581   1.2638498  21.1077881  )
        14           Co1 tau(  14) = (   2.0638581   3.7915494  21.1077881  )
        15           Co1 tau(  15) = (   2.0638581   6.3192490  21.1077881  )
        16           Co1 tau(  16) = (   0.0000000   0.0000000  20.3781041  )
        17           Co1 tau(  17) = (   0.0000000   2.5276996  20.3781041  )
        18           Co1 tau(  18) = (   0.0000000   5.0553992  20.3781041  )
        19           Co1 tau(  19) = (   4.1277161   1.2638498  19.6484201  )
        20           Co1 tau(  20) = (   4.1277161   3.7915494  19.6484201  )
        21           Co1 tau(  21) = (   4.1277161   6.3192490  19.6484201  )
        22           Co1 tau(  22) = (   2.0638581   0.0000000  18.9187361  )
        23           Co1 tau(  23) = (   2.0638581   2.5276996  18.9187361  )
        24           Co1 tau(  24) = (   2.0638581   5.0553992  18.9187361  )
        25           Co1 tau(  25) = (   0.0000000   1.2638498  18.1890521  )
        26           Co1 tau(  26) = (   0.0000000   3.7915494  18.1890521  )
        27           Co1 tau(  27) = (   0.0000000   6.3192490  18.1890521  )
        28           Co1 tau(  28) = (   4.1277161   0.0000000  17.4593680  )
        29           Co1 tau(  29) = (   4.1277161   2.5276996  17.4593680  )
        30           Co1 tau(  30) = (   4.1277161   5.0553992  17.4593680  )
        31           Co1 tau(  31) = (   2.0638581   1.2638498  16.7296840  )
        32           Co1 tau(  32) = (   2.0638581   3.7915494  16.7296840  )
        33           Co1 tau(  33) = (   2.0638581   6.3192490  16.7296840  )
        34           Co1 tau(  34) = (   0.0000000   0.0000000  16.0000000  )
        35           Co1 tau(  35) = (   0.0000000   2.5276996  16.0000000  )
        36           Co1 tau(  36) = (   0.0000000   5.0553992  16.0000000  )
        37           O1  tau(  37) = (   0.0000000   1.2638498  24.2671562  )

     number of k points=    10  Fermi-Dirac smearing, width (Ry)=  0.0073
                       cart. coord. in units 2pi/alat
        k(    1) = (   0.0000000   0.0000000   0.0000000), wk =   0.1111111
        k(    2) = (   0.0000000   0.0439574   0.0000000), wk =   0.2222222
        k(    3) = (   0.0538366   0.0000000   0.0000000), wk =   0.2222222
        k(    4) = (   0.0538366   0.0439574   0.0000000), wk =   0.2222222
        k(    5) = (   0.0538366  -0.0439574   0.0000000), wk =   0.2222222
        k(    6) = (   0.0000000   0.0000000   0.0000000), wk =   0.1111111
        k(    7) = (   0.0000000   0.0439574   0.0000000), wk =   0.2222222
        k(    8) = (   0.0538366   0.0000000   0.0000000), wk =   0.2222222
        k(    9) = (   0.0538366   0.0439574   0.0000000), wk =   0.2222222
        k(   10) = (   0.0538366  -0.0439574   0.0000000), wk =   0.2222222

     Dense  grid:  1983193 G-vectors     FFT dimensions: (  80,  96, 512)

     Smooth grid:   501747 G-vectors     FFT dimensions: (  50,  64, 320)

     Largest allocated arrays     est. size (Mb)     dimensions
        Kohn-Sham Wavefunctions        16.00 Mb     (    3956,  265)
        NL pseudopotentials            28.73 Mb     (    3956,  476)
        Each V/rho on FFT grid          7.50 Mb     (  245760,   2)
        Each G-vector array             0.95 Mb     (  123962)
        G-vector shells                 0.41 Mb     (   54356)
     Largest temporary arrays     est. size (Mb)     dimensions
        Auxiliary wavefunctions        63.99 Mb     (    3956, 1060)
        Each subspace H/S matrix       17.14 Mb     (    1060, 1060)
        Each <psi_i|beta_j> matrix      1.92 Mb     (     476,  265)
        Arrays for rho mixing          37.50 Mb     (  245760,   10)

     Check: negative/imaginary core charge=   -0.000002    0.000000

     Initial potential from superposition of free atoms
     Check: negative starting charge=(component1):   -0.004345
     Check: negative starting charge=(component2):   -0.001667

     starting charge  329.99032, renormalised to  330.00000

     negative rho (up, down):  4.345E-03 1.667E-03
 
     Adding external electric field

     Computed dipole along edir(3) : 
        Dipole               -0.0014 Ry au,         -0.0036 Debye
        Dipole field         -0.0000 Ry au
 
        Potential amp.        0.0002 Ry
        Total length         73.7482 bohr
 
 
     Adding external electric field

     Computed dipole along edir(3) : 
        Dipole               -0.0014 Ry au,         -0.0036 Debye
        Dipole field         -0.0000 Ry au
 
        Potential amp.        0.0002 Ry
        Total length         73.7482 bohr
 
     Starting wfc are  328 randomized atomic wfcs

     total cpu time spent up to now is       50.4 secs

     Self-consistent Calculation

     iteration #  1     ecut=    44.10 Ry     beta=0.10
     Davidson diagonalization with overlap
     ethr =  1.00E-02,  avg # of iterations =  8.0

     negative rho (up, down):  4.242E-03 1.874E-03
 
     Adding external electric field

     Computed dipole along edir(3) : 
        Dipole                0.0397 Ry au,          0.1008 Debye
        Dipole field          0.0000 Ry au
 
        Potential amp.       -0.0058 Ry
        Total length         73.7482 bohr
 
 
     Adding external electric field

     Computed dipole along edir(3) : 
        Dipole                0.0397 Ry au,          0.1008 Debye
        Dipole field          0.0000 Ry au
 
        Potential amp.       -0.0058 Ry
        Total length         73.7482 bohr
 
 
     Magnetic moment per site:
     atom:    1    charge:    3.1750    magn:    1.4235    constr:    0.0000
     atom:    2    charge:    3.1752    magn:    1.4227    constr:    0.0000
     atom:    3    charge:    3.1752    magn:    1.4227    constr:    0.0000
     atom:    4    charge:    3.2029    magn:    1.3964    constr:    0.0000
     atom:    5    charge:    3.2029    magn:    1.3964    constr:    0.0000
     atom:    6    charge:    3.2027    magn:    1.3961    constr:    0.0000
     atom:    7    charge:    3.2154    magn:    1.3841    constr:    0.0000
     atom:    8    charge:    3.2162    magn:    1.3824    constr:    0.0000
     atom:    9    charge:    3.2162    magn:    1.3824    constr:    0.0000
     atom:   10    charge:    3.2306    magn:    1.3681    constr:    0.0000
     atom:   11    charge:    3.2306    magn:    1.3681    constr:    0.0000
     atom:   12    charge:    3.2301    magn:    1.3681    constr:    0.0000
     atom:   13    charge:    3.2318    magn:    1.3686    constr:    0.0000
     atom:   14    charge:    3.2305    magn:    1.3691    constr:    0.0000
     atom:   15    charge:    3.2305    magn:    1.3691    constr:    0.0000
     atom:   16    charge:    3.2315    magn:    1.3672    constr:    0.0000
     atom:   17    charge:    3.2315    magn:    1.3672    constr:    0.0000
     atom:   18    charge:    3.2311    magn:    1.3689    constr:    0.0000
     atom:   19    charge:    3.2305    magn:    1.3684    constr:    0.0000
     atom:   20    charge:    3.2303    magn:    1.3684    constr:    0.0000
     atom:   21    charge:    3.2304    magn:    1.3683    constr:    0.0000
     atom:   22    charge:    3.2308    magn:    1.3691    constr:    0.0000
     atom:   23    charge:    3.2308    magn:    1.3691    constr:    0.0000
     atom:   24    charge:    3.2306    magn:    1.3690    constr:    0.0000
     atom:   25    charge:    3.2306    magn:    1.3681    constr:    0.0000
     atom:   26    charge:    3.2302    magn:    1.3684    constr:    0.0000
     atom:   27    charge:    3.2302    magn:    1.3684    constr:    0.0000
     atom:   28    charge:    3.2163    magn:    1.3814    constr:    0.0000
     atom:   29    charge:    3.2163    magn:    1.3814    constr:    0.0000
     atom:   30    charge:    3.2159    magn:    1.3813    constr:    0.0000
     atom:   31    charge:    3.2032    magn:    1.3954    constr:    0.0000
     atom:   32    charge:    3.2030    magn:    1.3955    constr:    0.0000
     atom:   33    charge:    3.2030    magn:    1.3955    constr:    0.0000
     atom:   34    charge:    3.1749    magn:    1.4230    constr:    0.0000
     atom:   35    charge:    3.1749    magn:    1.4230    constr:    0.0000
     atom:   36    charge:    3.1749    magn:    1.4229    constr:    0.0000
     atom:   37    charge:    2.0043    magn:    1.2588    constr:    0.0000

     total cpu time spent up to now is      213.2 secs

     total energy              =   -2913.27181919 Ry
     Harris-Foulkes estimate   =   -2916.93788573 Ry
     estimated scf accuracy    <      24.13543104 Ry

     total magnetization       =    75.71 Bohr mag/cell
     absolute magnetization    =    75.76 Bohr mag/cell

     iteration #  2     ecut=    44.10 Ry     beta=0.10
     Davidson diagonalization with overlap
     ethr =  7.31E-03,  avg # of iterations =  3.4

     negative rho (up, down):  5.322E-03 3.055E-03
 
     Adding external electric field

     Computed dipole along edir(3) : 
        Dipole               -0.1817 Ry au,         -0.4619 Debye
        Dipole field         -0.0002 Ry au
 
        Potential amp.        0.0266 Ry
        Total length         73.7482 bohr
 
 
     Adding external electric field

     Computed dipole along edir(3) : 
        Dipole               -0.1817 Ry au,         -0.4619 Debye
        Dipole field         -0.0002 Ry au
 
        Potential amp.        0.0266 Ry
        Total length         73.7482 bohr
 
 
     Magnetic moment per site:
     atom:    1    charge:    3.2034    magn:    1.3947    constr:    0.0000
     atom:    2    charge:    3.2036    magn:    1.3935    constr:    0.0000
     atom:    3    charge:    3.2036    magn:    1.3935    constr:    0.0000
     atom:    4    charge:    3.2240    magn:    1.3710    constr:    0.0000
     atom:    5    charge:    3.2240    magn:    1.3710    constr:    0.0000
     atom:    6    charge:    3.2236    magn:    1.3706    constr:    0.0000
     atom:    7    charge:    3.2226    magn:    1.3695    constr:    0.0000
     atom:    8    charge:    3.2258    magn:    1.3648    constr:    0.0000
     atom:    9    charge:    3.2258    magn:    1.3648    constr:    0.0000
     atom:   10    charge:    3.2185    magn:    1.3666    constr:    0.0000
     atom:   11    charge:    3.2185    magn:    1.3666    constr:    0.0000
     atom:   12    charge:    3.2179    magn:    1.3669    constr:    0.0000
     atom:   13    charge:    3.2103    magn:    1.3712    constr:    0.0000
     atom:   14    charge:    3.2091    magn:    1.3718    constr:    0.0000
     atom:   15    charge:    3.2091    magn:    1.3718    constr:    0.0000
     atom:   16    charge:    3.2049    magn:    1.3695    constr:    0.0000
     atom:   17    charge:    3.2049    magn:    1.3695    constr:    0.0000
     atom:   18    charge:    3.2047    magn:    1.3719    constr:    0.0000
     atom:   19    charge:    3.2038    magn:    1.3710    constr:    0.0000
     atom:   20    charge:    3.2039    magn:    1.3711    constr:    0.0000
     atom:   21    charge:    3.2039    magn:    1.3710    constr:    0.0000
     atom:   22    charge:    3.2089    magn:    1.3720    constr:    0.0000
     atom:   23    charge:    3.2089    magn:    1.3720    constr:    0.0000
     atom:   24    charge:    3.2089    magn:    1.3720    constr:    0.0000
     atom:   25    charge:    3.2176    magn:    1.3674    constr:    0.0000
     atom:   26    charge:    3.2174    magn:    1.3676    constr:    0.0000
     atom:   27    charge:    3.2174    magn:    1.3676    constr:    0.0000
     atom:   28    charge:    3.2239    magn:    1.3655    constr:    0.0000
     atom:   29    charge:    3.2239    magn:    1.3655    constr:    0.0000
     atom:   30    charge:    3.2238    magn:    1.3652    constr:    0.0000
     atom:   31    charge:    3.2234    magn:    1.3706    constr:    0.0000
     atom:   32    charge:    3.2233    magn:    1.3706    constr:    0.0000
     atom:   33    charge:    3.2233    magn:    1.3706    constr:    0.0000
     atom:   34    charge:    3.2032    magn:    1.3940    constr:    0.0000
     atom:   35    charge:    3.2032    magn:    1.3940    constr:    0.0000
     atom:   36    charge:    3.2032    magn:    1.3938    constr:    0.0000
     atom:   37    charge:    2.0124    magn:    1.2391    constr:    0.0000

     total cpu time spent up to now is      322.9 secs

     total energy              =   -2912.85407868 Ry
     Harris-Foulkes estimate   =   -2923.24787765 Ry
     estimated scf accuracy    <     247.30017807 Ry

     total magnetization       =    72.88 Bohr mag/cell
     absolute magnetization    =    73.04 Bohr mag/cell

     iteration #  3     ecut=    44.10 Ry     beta=0.10
     Davidson diagonalization with overlap
     ethr =  7.31E-03,  avg # of iterations =  1.0

     negative rho (up, down):  7.476E-03 4.795E-03
 
     Adding external electric field

     Computed dipole along edir(3) : 
        Dipole                0.4190 Ry au,          1.0649 Debye
        Dipole field          0.0004 Ry au
 
        Potential amp.       -0.0612 Ry
        Total length         73.7482 bohr
 
 
     Adding external electric field

     Computed dipole along edir(3) : 
        Dipole                0.4190 Ry au,          1.0649 Debye
        Dipole field          0.0004 Ry au
 
        Potential amp.       -0.0612 Ry
        Total length         73.7482 bohr
 
 
     Magnetic moment per site:
     atom:    1    charge:    3.2141    magn:    1.3796    constr:    0.0000
     atom:    2    charge:    3.2150    magn:    1.3778    constr:    0.0000
     atom:    3    charge:    3.2149    magn:    1.3778    constr:    0.0000
     atom:    4    charge:    3.2165    magn:    1.3701    constr:    0.0000
     atom:    5    charge:    3.2165    magn:    1.3701    constr:    0.0000
     atom:    6    charge:    3.2167    magn:    1.3689    constr:    0.0000
     atom:    7    charge:    3.2155    magn:    1.3661    constr:    0.0000
     atom:    8    charge:    3.2159    magn:    1.3649    constr:    0.0000
     atom:    9    charge:    3.2159    magn:    1.3649    constr:    0.0000
     atom:   10    charge:    3.2133    magn:    1.3624    constr:    0.0000
     atom:   11    charge:    3.2133    magn:    1.3624    constr:    0.0000
     atom:   12    charge:    3.2128    magn:    1.3625    constr:    0.0000
     atom:   13    charge:    3.2099    magn:    1.3638    constr:    0.0000
     atom:   14    charge:    3.2091    magn:    1.3640    constr:    0.0000
     atom:   15    charge:    3.2091    magn:    1.3641    constr:    0.0000
     atom:   16    charge:    3.2077    magn:    1.3597    constr:    0.0000
     atom:   17    charge:    3.2077    magn:    1.3597    constr:    0.0000
     atom:   18    charge:    3.2077    magn:    1.3622    constr:    0.0000
     atom:   19    charge:    3.2073    magn:    1.3608    constr:    0.0000
     atom:   20    charge:    3.2074    magn:    1.3608    constr:    0.0000
     atom:   21    charge:    3.2074    magn:    1.3608    constr:    0.0000
     atom:   22    charge:    3.2099    magn:    1.3634    constr:    0.0000
     atom:   23    charge:    3.2099    magn:    1.3634    constr:    0.0000
     atom:   24    charge:    3.2100    magn:    1.3633    constr:    0.0000
     atom:   25    charge:    3.2149    magn:    1.3611    constr:    0.0000
     atom:   26    charge:    3.2148    magn:    1.3611    constr:    0.0000
     atom:   27    charge:    3.2148    magn:    1.3611    constr:    0.0000
     atom:   28    charge:    3.2176    magn:    1.3625    constr:    0.0000
     atom:   29    charge:    3.2176    magn:    1.3625    constr:    0.0000
     atom:   30    charge:    3.2175    magn:    1.3622    constr:    0.0000
     atom:   31    charge:    3.2203    magn:    1.3656    constr:    0.0000
     atom:   32    charge:    3.2203    magn:    1.3655    constr:    0.0000
     atom:   33    charge:    3.2203    magn:    1.3655    constr:    0.0000
     atom:   34    charge:    3.2183    magn:    1.3748    constr:    0.0000
     atom:   35    charge:    3.2183    magn:    1.3748    constr:    0.0000
     atom:   36    charge:    3.2183    magn:    1.3746    constr:    0.0000
     atom:   37    charge:    2.0145    magn:    1.2240    constr:    0.0000

     total cpu time spent up to now is      418.6 secs

     total energy              =   -2916.63536756 Ry
     Harris-Foulkes estimate   =   -2917.18195600 Ry
     estimated scf accuracy    <      17.48199599 Ry

     total magnetization       =    75.53 Bohr mag/cell
     absolute magnetization    =    75.62 Bohr mag/cell

     iteration #  4     ecut=    44.10 Ry     beta=0.10
     Davidson diagonalization with overlap
     ethr =  5.30E-03,  avg # of iterations =  1.0

     negative rho (up, down):  1.015E-02 6.758E-03
 
     Adding external electric field

     Computed dipole along edir(3) : 
        Dipole               -0.1390 Ry au,         -0.3534 Debye
        Dipole field         -0.0001 Ry au
 
        Potential amp.        0.0203 Ry
        Total length         73.7482 bohr
 
 
     Adding external electric field

     Computed dipole along edir(3) : 
        Dipole               -0.1390 Ry au,         -0.3534 Debye
        Dipole field         -0.0001 Ry au
 
        Potential amp.        0.0203 Ry
        Total length         73.7482 bohr
 
 
     Magnetic moment per site:
     atom:    1    charge:    3.2198    magn:    1.3714    constr:    0.0000
     atom:    2    charge:    3.2210    magn:    1.3693    constr:    0.0000
     atom:    3    charge:    3.2210    magn:    1.3693    constr:    0.0000
     atom:    4    charge:    3.2172    magn:    1.3658    constr:    0.0000
     atom:    5    charge:    3.2172    magn:    1.3658    constr:    0.0000
     atom:    6    charge:    3.2172    magn:    1.3648    constr:    0.0000
     atom:    7    charge:    3.2144    magn:    1.3628    constr:    0.0000
     atom:    8    charge:    3.2149    magn:    1.3617    constr:    0.0000
     atom:    9    charge:    3.2149    magn:    1.3618    constr:    0.0000
     atom:   10    charge:    3.2125    magn:    1.3589    constr:    0.0000
     atom:   11    charge:    3.2125    magn:    1.3589    constr:    0.0000
     atom:   12    charge:    3.2121    magn:    1.3588    constr:    0.0000
     atom:   13    charge:    3.2102    magn:    1.3597    constr:    0.0000
     atom:   14    charge:    3.2096    magn:    1.3597    constr:    0.0000
     atom:   15    charge:    3.2096    magn:    1.3597    constr:    0.0000
     atom:   16    charge:    3.2086    magn:    1.3552    constr:    0.0000
     atom:   17    charge:    3.2086    magn:    1.3552    constr:    0.0000
     atom:   18    charge:    3.2086    magn:    1.3578    constr:    0.0000
     atom:   19    charge:    3.2080    magn:    1.3565    constr:    0.0000
     atom:   20    charge:    3.2081    magn:    1.3565    constr:    0.0000
     atom:   21    charge:    3.2081    magn:    1.3565    constr:    0.0000
     atom:   22    charge:    3.2095    magn:    1.3598    constr:    0.0000
     atom:   23    charge:    3.2095    magn:    1.3598    constr:    0.0000
     atom:   24    charge:    3.2095    magn:    1.3597    constr:    0.0000
     atom:   25    charge:    3.2126    magn:    1.3587    constr:    0.0000
     atom:   26    charge:    3.2126    magn:    1.3587    constr:    0.0000
     atom:   27    charge:    3.2126    magn:    1.3587    constr:    0.0000
     atom:   28    charge:    3.2142    magn:    1.3614    constr:    0.0000
     atom:   29    charge:    3.2142    magn:    1.3613    constr:    0.0000
     atom:   30    charge:    3.2141    magn:    1.3609    constr:    0.0000
     atom:   31    charge:    3.2175    magn:    1.3643    constr:    0.0000
     atom:   32    charge:    3.2175    magn:    1.3642    constr:    0.0000
     atom:   33    charge:    3.2175    magn:    1.3642    constr:    0.0000
     atom:   34    charge:    3.2199    magn:    1.3704    constr:    0.0000
     atom:   35    charge:    3.2199    magn:    1.3704    constr:    0.0000
     atom:   36    charge:    3.2200    magn:    1.3701    constr:    0.0000
     atom:   37    charge:    2.0158    magn:    1.2164    constr:    0.0000

     total cpu time spent up to now is      514.4 secs

     total energy              =   -2916.59825101 Ry
     Harris-Foulkes estimate   =   -2917.16774702 Ry
     estimated scf accuracy    <      51.49455188 Ry

     total magnetization       =    75.66 Bohr mag/cell
     absolute magnetization    =    75.78 Bohr mag/cell

     iteration #  5     ecut=    44.10 Ry     beta=0.10
     Davidson diagonalization with overlap
     ethr =  5.30E-03,  avg # of iterations =  1.0

     negative rho (up, down):  6.798E-03 5.222E-03
 
     Adding external electric field

     Computed dipole along edir(3) : 
        Dipole               -0.0256 Ry au,         -0.0650 Debye
        Dipole field         -0.0000 Ry au
 
        Potential amp.        0.0037 Ry
        Total length         73.7482 bohr
 
 
     Adding external electric field

     Computed dipole along edir(3) : 
        Dipole               -0.0256 Ry au,         -0.0650 Debye
        Dipole field         -0.0000 Ry au
 
        Potential amp.        0.0037 Ry
        Total length         73.7482 bohr
 
 
     Magnetic moment per site:
     atom:    1    charge:    3.2304    magn:    1.3086    constr:    0.0000
     atom:    2    charge:    3.2337    magn:    1.3047    constr:    0.0000
     atom:    3    charge:    3.2337    magn:    1.3046    constr:    0.0000
     atom:    4    charge:    3.2271    magn:    1.2982    constr:    0.0000
     atom:    5    charge:    3.2271    magn:    1.2982    constr:    0.0000
     atom:    6    charge:    3.2236    magn:    1.2993    constr:    0.0000
     atom:    7    charge:    3.2002    magn:    1.3059    constr:    0.0000
     atom:    8    charge:    3.2120    magn:    1.3009    constr:    0.0000
     atom:    9    charge:    3.2120    magn:    1.3009    constr:    0.0000
     atom:   10    charge:    3.1962    magn:    1.3039    constr:    0.0000
     atom:   11    charge:    3.1962    magn:    1.3039    constr:    0.0000
     atom:   12    charge:    3.1968    magn:    1.3022    constr:    0.0000
     atom:   13    charge:    3.2025    magn:    1.3006    constr:    0.0000
     atom:   14    charge:    3.2033    magn:    1.2984    constr:    0.0000
     atom:   15    charge:    3.2033    magn:    1.2984    constr:    0.0000
     atom:   16    charge:    3.2028    magn:    1.2951    constr:    0.0000
     atom:   17    charge:    3.2028    magn:    1.2951    constr:    0.0000
     atom:   18    charge:    3.2043    magn:    1.2985    constr:    0.0000
     atom:   19    charge:    3.2026    magn:    1.2971    constr:    0.0000
     atom:   20    charge:    3.2029    magn:    1.2967    constr:    0.0000
     atom:   21    charge:    3.2029    magn:    1.2967    constr:    0.0000
     atom:   22    charge:    3.2016    magn:    1.3005    constr:    0.0000
     atom:   23    charge:    3.2016    magn:    1.3005    constr:    0.0000
     atom:   24    charge:    3.2013    magn:    1.3002    constr:    0.0000
     atom:   25    charge:    3.1934    magn:    1.3054    constr:    0.0000
     atom:   26    charge:    3.1933    magn:    1.3050    constr:    0.0000
     atom:   27    charge:    3.1933    magn:    1.3050    constr:    0.0000
     atom:   28    charge:    3.2075    magn:    1.3027    constr:    0.0000
     atom:   29    charge:    3.2075    magn:    1.3027    constr:    0.0000
     atom:   30    charge:    3.2075    magn:    1.3016    constr:    0.0000
     atom:   31    charge:    3.2189    magn:    1.3025    constr:    0.0000
     atom:   32    charge:    3.2189    magn:    1.3022    constr:    0.0000
     atom:   33    charge:    3.2189    magn:    1.3022    constr:    0.0000
     atom:   34    charge:    3.2454    magn:    1.2942    constr:    0.0000
     atom:   35    charge:    3.2454    magn:    1.2942    constr:    0.0000
     atom:   36    charge:    3.2456    magn:    1.2936    constr:    0.0000
     atom:   37    charge:    2.0346    magn:    1.0915    constr:    0.0000

     total cpu time spent up to now is      610.3 secs

     total energy              =   -2917.22924746 Ry
     Harris-Foulkes estimate   =   -2916.95136864 Ry
     estimated scf accuracy    <       4.44631712 Ry

     total magnetization       =    75.70 Bohr mag/cell
     absolute magnetization    =    75.79 Bohr mag/cell

     iteration #  6     ecut=    44.10 Ry     beta=0.10
     Davidson diagonalization with overlap
     ethr =  1.35E-03,  avg # of iterations =  6.2

     negative rho (up, down):  5.675E-03 4.953E-03
 
     Adding external electric field

     Computed dipole along edir(3) : 
        Dipole               -0.1376 Ry au,         -0.3499 Debye
        Dipole field         -0.0001 Ry au
 
        Potential amp.        0.0201 Ry
        Total length         73.7482 bohr
 
 
     Adding external electric field

     Computed dipole along edir(3) : 
        Dipole               -0.1376 Ry au,         -0.3499 Debye
        Dipole field         -0.0001 Ry au
 
        Potential amp.        0.0201 Ry
        Total length         73.7482 bohr
 
 
     Magnetic moment per site:
     atom:    1    charge:    3.2418    magn:    1.2635    constr:    0.0000
     atom:    2    charge:    3.2462    magn:    1.2585    constr:    0.0000
     atom:    3    charge:    3.2462    magn:    1.2584    constr:    0.0000
     atom:    4    charge:    3.2194    magn:    1.2655    constr:    0.0000
     atom:    5    charge:    3.2194    magn:    1.2655    constr:    0.0000
     atom:    6    charge:    3.2175    magn:    1.2649    constr:    0.0000
     atom:    7    charge:    3.1978    magn:    1.2653    constr:    0.0000
     atom:    8    charge:    3.2088    magn:    1.2627    constr:    0.0000
     atom:    9    charge:    3.2088    magn:    1.2627    constr:    0.0000
     atom:   10    charge:    3.1933    magn:    1.2638    constr:    0.0000
     atom:   11    charge:    3.1933    magn:    1.2638    constr:    0.0000
     atom:   12    charge:    3.1929    magn:    1.2624    constr:    0.0000
     atom:   13    charge:    3.1957    magn:    1.2643    constr:    0.0000
     atom:   14    charge:    3.1956    magn:    1.2620    constr:    0.0000
     atom:   15    charge:    3.1956    magn:    1.2620    constr:    0.0000
     atom:   16    charge:    3.1980    magn:    1.2565    constr:    0.0000
     atom:   17    charge:    3.1980    magn:    1.2565    constr:    0.0000
     atom:   18    charge:    3.1983    magn:    1.2623    constr:    0.0000
     atom:   19    charge:    3.1988    magn:    1.2586    constr:    0.0000
     atom:   20    charge:    3.1985    magn:    1.2586    constr:    0.0000
     atom:   21    charge:    3.1985    magn:    1.2586    constr:    0.0000
     atom:   22    charge:    3.1970    magn:    1.2621    constr:    0.0000
     atom:   23    charge:    3.1970    magn:    1.2621    constr:    0.0000
     atom:   24    charge:    3.1966    magn:    1.2617    constr:    0.0000
     atom:   25    charge:    3.1941    magn:    1.2623    constr:    0.0000
     atom:   26    charge:    3.1939    magn:    1.2617    constr:    0.0000
     atom:   27    charge:    3.1939    magn:    1.2617    constr:    0.0000
     atom:   28    charge:    3.2091    magn:    1.2602    constr:    0.0000
     atom:   29    charge:    3.2091    magn:    1.2602    constr:    0.0000
     atom:   30    charge:    3.2091    magn:    1.2589    constr:    0.0000
     atom:   31    charge:    3.2197    magn:    1.2624    constr:    0.0000
     atom:   32    charge:    3.2199    magn:    1.2619    constr:    0.0000
     atom:   33    charge:    3.2199    magn:    1.2619    constr:    0.0000
     atom:   34    charge:    3.2453    magn:    1.2576    constr:    0.0000
     atom:   35    charge:    3.2453    magn:    1.2576    constr:    0.0000
     atom:   36    charge:    3.2456    magn:    1.2566    constr:    0.0000
     atom:   37    charge:    2.0466    magn:    1.0100    constr:    0.0000

     total cpu time spent up to now is      733.3 secs

     total energy              =   -2917.62615189 Ry
     Harris-Foulkes estimate   =   -2917.46228806 Ry
     estimated scf accuracy    <       4.77218977 Ry

     total magnetization       =    74.74 Bohr mag/cell
     absolute magnetization    =    74.91 Bohr mag/cell

     iteration #  7     ecut=    44.10 Ry     beta=0.10
     Davidson diagonalization with overlap
     ethr =  1.35E-03,  avg # of iterations =  1.1

     negative rho (up, down):  5.977E-03 5.489E-03
 
     Adding external electric field

     Computed dipole along edir(3) : 
        Dipole               -0.1011 Ry au,         -0.2569 Debye
        Dipole field         -0.0001 Ry au
 
        Potential amp.        0.0148 Ry
        Total length         73.7482 bohr
 
 
     Adding external electric field

     Computed dipole along edir(3) : 
        Dipole               -0.1011 Ry au,         -0.2569 Debye
        Dipole field         -0.0001 Ry au
 
        Potential amp.        0.0148 Ry
        Total length         73.7482 bohr
 
 
     Magnetic moment per site:
     atom:    1    charge:    3.2329    magn:    1.2508    constr:    0.0000
     atom:    2    charge:    3.2378    magn:    1.2455    constr:    0.0000
     atom:    3    charge:    3.2378    magn:    1.2455    constr:    0.0000
     atom:    4    charge:    3.2171    magn:    1.2482    constr:    0.0000
     atom:    5    charge:    3.2170    magn:    1.2482    constr:    0.0000
     atom:    6    charge:    3.2163    magn:    1.2462    constr:    0.0000
     atom:    7    charge:    3.2015    magn:    1.2424    constr:    0.0000
     atom:    8    charge:    3.2098    magn:    1.2416    constr:    0.0000
     atom:    9    charge:    3.2098    magn:    1.2416    constr:    0.0000
     atom:   10    charge:    3.1974    magn:    1.2411    constr:    0.0000
     atom:   11    charge:    3.1974    magn:    1.2411    constr:    0.0000
     atom:   12    charge:    3.1972    magn:    1.2395    constr:    0.0000
     atom:   13    charge:    3.1972    magn:    1.2434    constr:    0.0000
     atom:   14    charge:    3.1973    magn:    1.2406    constr:    0.0000
     atom:   15    charge:    3.1973    magn:    1.2406    constr:    0.0000
     atom:   16    charge:    3.1973    magn:    1.2361    constr:    0.0000
     atom:   17    charge:    3.1973    magn:    1.2361    constr:    0.0000
     atom:   18    charge:    3.1973    magn:    1.2430    constr:    0.0000
     atom:   19    charge:    3.1964    magn:    1.2397    constr:    0.0000
     atom:   20    charge:    3.1965    magn:    1.2394    constr:    0.0000
     atom:   21    charge:    3.1965    magn:    1.2394    constr:    0.0000
     atom:   22    charge:    3.1958    magn:    1.2430    constr:    0.0000
     atom:   23    charge:    3.1958    magn:    1.2430    constr:    0.0000
     atom:   24    charge:    3.1960    magn:    1.2422    constr:    0.0000
     atom:   25    charge:    3.1970    magn:    1.2402    constr:    0.0000
     atom:   26    charge:    3.1971    magn:    1.2394    constr:    0.0000
     atom:   27    charge:    3.1971    magn:    1.2394    constr:    0.0000
     atom:   28    charge:    3.2063    magn:    1.2419    constr:    0.0000
     atom:   29    charge:    3.2063    magn:    1.2419    constr:    0.0000
     atom:   30    charge:    3.2065    magn:    1.2403    constr:    0.0000
     atom:   31    charge:    3.2161    magn:    1.2452    constr:    0.0000
     atom:   32    charge:    3.2163    magn:    1.2445    constr:    0.0000
     atom:   33    charge:    3.2163    magn:    1.2445    constr:    0.0000
     atom:   34    charge:    3.2410    magn:    1.2411    constr:    0.0000
     atom:   35    charge:    3.2410    magn:    1.2411    constr:    0.0000
     atom:   36    charge:    3.2413    magn:    1.2400    constr:    0.0000
     atom:   37    charge:    2.0512    magn:    0.9677    constr:    0.0000

     total cpu time spent up to now is      829.6 secs

     total energy              =   -2917.77423214 Ry
     Harris-Foulkes estimate   =   -2917.72308267 Ry
     estimated scf accuracy    <       3.07933177 Ry

     total magnetization       =    73.81 Bohr mag/cell
     absolute magnetization    =    74.16 Bohr mag/cell

     iteration #  8     ecut=    44.10 Ry     beta=0.10
     Davidson diagonalization with overlap
     ethr =  9.33E-04,  avg # of iterations =  4.2

     negative rho (up, down):  5.563E-03 5.953E-03
 
     Adding external electric field

     Computed dipole along edir(3) : 
        Dipole               -0.1048 Ry au,         -0.2665 Debye
        Dipole field         -0.0001 Ry au
 
        Potential amp.        0.0153 Ry
        Total length         73.7482 bohr
 
 
     Adding external electric field

     Computed dipole along edir(3) : 
        Dipole               -0.1048 Ry au,         -0.2665 Debye
        Dipole field         -0.0001 Ry au
 
        Potential amp.        0.0153 Ry
        Total length         73.7482 bohr
 
 
     Magnetic moment per site:
     atom:    1    charge:    3.2241    magn:    1.2282    constr:    0.0000
     atom:    2    charge:    3.2299    magn:    1.2220    constr:    0.0000
     atom:    3    charge:    3.2298    magn:    1.2220    constr:    0.0000
     atom:    4    charge:    3.2161    magn:    1.2209    constr:    0.0000
     atom:    5    charge:    3.2161    magn:    1.2209    constr:    0.0000
     atom:    6    charge:    3.2138    magn:    1.2194    constr:    0.0000
     atom:    7    charge:    3.1978    magn:    1.2152    constr:    0.0000
     atom:    8    charge:    3.2074    magn:    1.2142    constr:    0.0000
     atom:    9    charge:    3.2074    magn:    1.2142    constr:    0.0000
     atom:   10    charge:    3.1970    magn:    1.2135    constr:    0.0000
     atom:   11    charge:    3.1970    magn:    1.2135    constr:    0.0000
     atom:   12    charge:    3.1971    magn:    1.2114    constr:    0.0000
     atom:   13    charge:    3.1979    magn:    1.2149    constr:    0.0000
     atom:   14    charge:    3.1980    magn:    1.2115    constr:    0.0000
     atom:   15    charge:    3.1980    magn:    1.2115    constr:    0.0000
     atom:   16    charge:    3.1970    magn:    1.2067    constr:    0.0000
     atom:   17    charge:    3.1970    magn:    1.2067    constr:    0.0000
     atom:   18    charge:    3.1983    magn:    1.2140    constr:    0.0000
     atom:   19    charge:    3.1983    magn:    1.2092    constr:    0.0000
     atom:   20    charge:    3.1985    magn:    1.2090    constr:    0.0000
     atom:   21    charge:    3.1986    magn:    1.2090    constr:    0.0000
     atom:   22    charge:    3.1990    magn:    1.2123    constr:    0.0000
     atom:   23    charge:    3.1990    magn:    1.2123    constr:    0.0000
     atom:   24    charge:    3.1988    magn:    1.2117    constr:    0.0000
     atom:   25    charge:    3.1973    magn:    1.2118    constr:    0.0000
     atom:   26    charge:    3.1971    magn:    1.2111    constr:    0.0000
     atom:   27    charge:    3.1971    magn:    1.2111    constr:    0.0000
     atom:   28    charge:    3.2067    magn:    1.2121    constr:    0.0000
     atom:   29    charge:    3.2067    magn:    1.2121    constr:    0.0000
     atom:   30    charge:    3.2066    magn:    1.2106    constr:    0.0000
     atom:   31    charge:    3.2128    magn:    1.2186    constr:    0.0000
     atom:   32    charge:    3.2126    magn:    1.2181    constr:    0.0000
     atom:   33    charge:    3.2126    magn:    1.2181    constr:    0.0000
     atom:   34    charge:    3.2283    magn:    1.2208    constr:    0.0000
     atom:   35    charge:    3.2283    magn:    1.2207    constr:    0.0000
     atom:   36    charge:    3.2284    magn:    1.2196    constr:    0.0000
     atom:   37    charge:    2.0549    magn:    0.9046    constr:    0.0000

     total cpu time spent up to now is      941.0 secs

     total energy              =   -2917.95922107 Ry
     Harris-Foulkes estimate   =   -2917.81377670 Ry
     estimated scf accuracy    <       0.89599900 Ry

     total magnetization       =    73.01 Bohr mag/cell
     absolute magnetization    =    73.51 Bohr mag/cell

     iteration #  9     ecut=    44.10 Ry     beta=0.10
     Davidson diagonalization with overlap
     ethr =  2.72E-04,  avg # of iterations =  9.6

     negative rho (up, down):  5.677E-03 7.173E-03
 
     Adding external electric field

     Computed dipole along edir(3) : 
        Dipole               -0.0446 Ry au,         -0.1133 Debye
        Dipole field         -0.0000 Ry au
 
        Potential amp.        0.0065 Ry
        Total length         73.7482 bohr
 
 
     Adding external electric field

     Computed dipole along edir(3) : 
        Dipole               -0.0446 Ry au,         -0.1133 Debye
        Dipole field         -0.0000 Ry au
 
        Potential amp.        0.0065 Ry
        Total length         73.7482 bohr
 
 
     Magnetic moment per site:
     atom:    1    charge:    3.2231    magn:    1.1537    constr:    0.0000
     atom:    2    charge:    3.2266    magn:    1.1481    constr:    0.0000
     atom:    3    charge:    3.2266    magn:    1.1481    constr:    0.0000
     atom:    4    charge:    3.2086    magn:    1.1523    constr:    0.0000
     atom:    5    charge:    3.2086    magn:    1.1523    constr:    0.0000
     atom:    6    charge:    3.2037    magn:    1.1510    constr:    0.0000
     atom:    7    charge:    3.1887    magn:    1.1406    constr:    0.0000
     atom:    8    charge:    3.2077    magn:    1.1361    constr:    0.0000
     atom:    9    charge:    3.2077    magn:    1.1361    constr:    0.0000
     atom:   10    charge:    3.1948    magn:    1.1383    constr:    0.0000
     atom:   11    charge:    3.1948    magn:    1.1383    constr:    0.0000
     atom:   12    charge:    3.1938    magn:    1.1361    constr:    0.0000
     atom:   13    charge:    3.1955    magn:    1.1411    constr:    0.0000
     atom:   14    charge:    3.1954    magn:    1.1361    constr:    0.0000
     atom:   15    charge:    3.1954    magn:    1.1361    constr:    0.0000
     atom:   16    charge:    3.1990    magn:    1.1278    constr:    0.0000
     atom:   17    charge:    3.1990    magn:    1.1278    constr:    0.0000
     atom:   18    charge:    3.1994    magn:    1.1388    constr:    0.0000
     atom:   19    charge:    3.1983    magn:    1.1329    constr:    0.0000
     atom:   20    charge:    3.1974    magn:    1.1335    constr:    0.0000
     atom:   21    charge:    3.1974    magn:    1.1335    constr:    0.0000
     atom:   22    charge:    3.1952    magn:    1.1384    constr:    0.0000
     atom:   23    charge:    3.1952    magn:    1.1384    constr:    0.0000
     atom:   24    charge:    3.1947    magn:    1.1380    constr:    0.0000
     atom:   25    charge:    3.1929    magn:    1.1375    constr:    0.0000
     atom:   26    charge:    3.1924    magn:    1.1367    constr:    0.0000
     atom:   27    charge:    3.1924    magn:    1.1367    constr:    0.0000
     atom:   28    charge:    3.2003    magn:    1.1385    constr:    0.0000
     atom:   29    charge:    3.2003    magn:    1.1385    constr:    0.0000
     atom:   30    charge:    3.2003    magn:    1.1365    constr:    0.0000
     atom:   31    charge:    3.2047    magn:    1.1483    constr:    0.0000
     atom:   32    charge:    3.2051    magn:    1.1471    constr:    0.0000
     atom:   33    charge:    3.2051    magn:    1.1471    constr:    0.0000
     atom:   34    charge:    3.2252    magn:    1.1440    constr:    0.0000
     atom:   35    charge:    3.2253    magn:    1.1440    constr:    0.0000
     atom:   36    charge:    3.2262    magn:    1.1416    constr:    0.0000
     atom:   37    charge:    2.0611    magn:    0.7370    constr:    0.0000

     total cpu time spent up to now is     1081.3 secs

     total energy              =   -2918.35398399 Ry
     Harris-Foulkes estimate   =   -2917.99649368 Ry
     estimated scf accuracy    <       0.97110155 Ry

     total magnetization       =    71.74 Bohr mag/cell
     absolute magnetization    =    72.49 Bohr mag/cell

     iteration # 10     ecut=    44.10 Ry     beta=0.10
     Davidson diagonalization with overlap
     ethr =  2.72E-04,  avg # of iterations =  1.0

     negative rho (up, down):  1.158E-02 1.125E-02
 
     Adding external electric field

     Computed dipole along edir(3) : 
        Dipole               -0.0544 Ry au,         -0.1383 Debye
        Dipole field         -0.0001 Ry au
 
        Potential amp.        0.0080 Ry
        Total length         73.7482 bohr
 
 
     Adding external electric field

     Computed dipole along edir(3) : 
        Dipole               -0.0544 Ry au,         -0.1383 Debye
        Dipole field         -0.0001 Ry au
 
        Potential amp.        0.0080 Ry
        Total length         73.7482 bohr
 
 
     Magnetic moment per site:
     atom:    1    charge:    3.2235    magn:    1.0748    constr:    0.0000
     atom:    2    charge:    3.2295    magn:    1.0661    constr:    0.0000
     atom:    3    charge:    3.2295    magn:    1.0661    constr:    0.0000
     atom:    4    charge:    3.2079    magn:    1.0744    constr:    0.0000
     atom:    5    charge:    3.2079    magn:    1.0744    constr:    0.0000
     atom:    6    charge:    3.2032    magn:    1.0714    constr:    0.0000
     atom:    7    charge:    3.1858    magn:    1.0557    constr:    0.0000
     atom:    8    charge:    3.1982    magn:    1.0604    constr:    0.0000
     atom:    9    charge:    3.1982    magn:    1.0604    constr:    0.0000
     atom:   10    charge:    3.1909    magn:    1.0587    constr:    0.0000
     atom:   11    charge:    3.1909    magn:    1.0587    constr:    0.0000
     atom:   12    charge:    3.1900    magn:    1.0556    constr:    0.0000
     atom:   13    charge:    3.1948    magn:    1.0606    constr:    0.0000
     atom:   14    charge:    3.1957    magn:    1.0531    constr:    0.0000
     atom:   15    charge:    3.1957    magn:    1.0531    constr:    0.0000
     atom:   16    charge:    3.1950    magn:    1.0471    constr:    0.0000
     atom:   17    charge:    3.1950    magn:    1.0471    constr:    0.0000
     atom:   18    charge:    3.1955    magn:    1.0613    constr:    0.0000
     atom:   19    charge:    3.1953    magn:    1.0527    constr:    0.0000
     atom:   20    charge:    3.1952    magn:    1.0528    constr:    0.0000
     atom:   21    charge:    3.1952    magn:    1.0527    constr:    0.0000
     atom:   22    charge:    3.1946    magn:    1.0566    constr:    0.0000
     atom:   23    charge:    3.1946    magn:    1.0566    constr:    0.0000
     atom:   24    charge:    3.1949    magn:    1.0555    constr:    0.0000
     atom:   25    charge:    3.1911    magn:    1.0559    constr:    0.0000
     atom:   26    charge:    3.1915    magn:    1.0540    constr:    0.0000
     atom:   27    charge:    3.1915    magn:    1.0540    constr:    0.0000
     atom:   28    charge:    3.1937    magn:    1.0604    constr:    0.0000
     atom:   29    charge:    3.1937    magn:    1.0604    constr:    0.0000
     atom:   30    charge:    3.1937    magn:    1.0581    constr:    0.0000
     atom:   31    charge:    3.2015    magn:    1.0706    constr:    0.0000
     atom:   32    charge:    3.2012    magn:    1.0699    constr:    0.0000
     atom:   33    charge:    3.2012    magn:    1.0699    constr:    0.0000
     atom:   34    charge:    3.2270    magn:    1.0605    constr:    0.0000
     atom:   35    charge:    3.2270    magn:    1.0605    constr:    0.0000
     atom:   36    charge:    3.2267    magn:    1.0587    constr:    0.0000
     atom:   37    charge:    2.0640    magn:    0.5559    constr:    0.0000

     total cpu time spent up to now is     1177.2 secs

     total energy              =   -2918.68483923 Ry
     Harris-Foulkes estimate   =   -2918.40906574 Ry
     estimated scf accuracy    <       0.67892162 Ry

     total magnetization       =    69.50 Bohr mag/cell
     absolute magnetization    =    71.25 Bohr mag/cell

     iteration # 11     ecut=    44.10 Ry     beta=0.10
     Davidson diagonalization with overlap
     ethr =  2.06E-04,  avg # of iterations =  5.3

     negative rho (up, down):  1.514E-02 1.380E-02
 
     Adding external electric field

     Computed dipole along edir(3) : 
        Dipole               -0.0947 Ry au,         -0.2407 Debye
        Dipole field         -0.0001 Ry au
 
        Potential amp.        0.0138 Ry
        Total length         73.7482 bohr
 
 
     Adding external electric field

     Computed dipole along edir(3) : 
        Dipole               -0.0947 Ry au,         -0.2407 Debye
        Dipole field         -0.0001 Ry au
 
        Potential amp.        0.0138 Ry
        Total length         73.7482 bohr
 
 
     Magnetic moment per site:
     atom:    1    charge:    3.2211    magn:    1.0289    constr:    0.0000
     atom:    2    charge:    3.2257    magn:    1.0214    constr:    0.0000
     atom:    3    charge:    3.2257    magn:    1.0214    constr:    0.0000
     atom:    4    charge:    3.2082    magn:    1.0284    constr:    0.0000
     atom:    5    charge:    3.2082    magn:    1.0284    constr:    0.0000
     atom:    6    charge:    3.2038    magn:    1.0246    constr:    0.0000
     atom:    7    charge:    3.1901    magn:    0.9978    constr:    0.0000
     atom:    8    charge:    3.2017    magn:    1.0087    constr:    0.0000
     atom:    9    charge:    3.2017    magn:    1.0087    constr:    0.0000
     atom:   10    charge:    3.1938    magn:    1.0080    constr:    0.0000
     atom:   11    charge:    3.1938    magn:    1.0080    constr:    0.0000
     atom:   12    charge:    3.1949    magn:    1.0032    constr:    0.0000
     atom:   13    charge:    3.1953    magn:    1.0111    constr:    0.0000
     atom:   14    charge:    3.1969    magn:    1.0021    constr:    0.0000
     atom:   15    charge:    3.1969    magn:    1.0021    constr:    0.0000
     atom:   16    charge:    3.1947    magn:    0.9948    constr:    0.0000
     atom:   17    charge:    3.1947    magn:    0.9948    constr:    0.0000
     atom:   18    charge:    3.1969    magn:    1.0100    constr:    0.0000
     atom:   19    charge:    3.1968    magn:    1.0002    constr:    0.0000
     atom:   20    charge:    3.1974    magn:    0.9997    constr:    0.0000
     atom:   21    charge:    3.1974    magn:    0.9997    constr:    0.0000
     atom:   22    charge:    3.1970    magn:    1.0048    constr:    0.0000
     atom:   23    charge:    3.1970    magn:    1.0048    constr:    0.0000
     atom:   24    charge:    3.1968    magn:    1.0041    constr:    0.0000
     atom:   25    charge:    3.1935    magn:    1.0050    constr:    0.0000
     atom:   26    charge:    3.1935    magn:    1.0032    constr:    0.0000
     atom:   27    charge:    3.1935    magn:    1.0032    constr:    0.0000
     atom:   28    charge:    3.1979    magn:    1.0089    constr:    0.0000
     atom:   29    charge:    3.1979    magn:    1.0089    constr:    0.0000
     atom:   30    charge:    3.1970    magn:    1.0075    constr:    0.0000
     atom:   31    charge:    3.2036    magn:    1.0224    constr:    0.0000
     atom:   32    charge:    3.2032    magn:    1.0221    constr:    0.0000
     atom:   33    charge:    3.2032    magn:    1.0221    constr:    0.0000
     atom:   34    charge:    3.2230    magn:    1.0145    constr:    0.0000
     atom:   35    charge:    3.2230    magn:    1.0145    constr:    0.0000
     atom:   36    charge:    3.2241    magn:    1.0116    constr:    0.0000
     atom:   37    charge:    2.0564    magn:    0.4378    constr:    0.0000

     total cpu time spent up to now is     1294.2 secs

     total energy              =   -2918.78111633 Ry
     Harris-Foulkes estimate   =   -2918.75178236 Ry
     estimated scf accuracy    <       3.02893738 Ry

     total magnetization       =    66.90 Bohr mag/cell
     absolute magnetization    =    70.20 Bohr mag/cell

     iteration # 12     ecut=    44.10 Ry     beta=0.10
     Davidson diagonalization with overlap
     ethr =  2.06E-04,  avg # of iterations =  1.5

     negative rho (up, down):  1.449E-02 1.372E-02
 
     Adding external electric field

     Computed dipole along edir(3) : 
        Dipole               -0.0962 Ry au,         -0.2446 Debye
        Dipole field         -0.0001 Ry au
 
        Potential amp.        0.0141 Ry
        Total length         73.7482 bohr
 
 
     Adding external electric field

     Computed dipole along edir(3) : 
        Dipole               -0.0962 Ry au,         -0.2446 Debye
        Dipole field         -0.0001 Ry au
 
        Potential amp.        0.0141 Ry
        Total length         73.7482 bohr
 
 
     Magnetic moment per site:
     atom:    1    charge:    3.2132    magn:    1.0219    constr:    0.0000
     atom:    2    charge:    3.2171    magn:    1.0158    constr:    0.0000
     atom:    3    charge:    3.2171    magn:    1.0158    constr:    0.0000
     atom:    4    charge:    3.2105    magn:    1.0169    constr:    0.0000
     atom:    5    charge:    3.2105    magn:    1.0169    constr:    0.0000
     atom:    6    charge:    3.2037    magn:    1.0150    constr:    0.0000
     atom:    7    charge:    3.1894    magn:    0.9810    constr:    0.0000
     atom:    8    charge:    3.2050    magn:    0.9953    constr:    0.0000
     atom:    9    charge:    3.2050    magn:    0.9953    constr:    0.0000
     atom:   10    charge:    3.2005    magn:    0.9934    constr:    0.0000
     atom:   11    charge:    3.2005    magn:    0.9934    constr:    0.0000
     atom:   12    charge:    3.1986    magn:    0.9909    constr:    0.0000
     atom:   13    charge:    3.2003    magn:    0.9967    constr:    0.0000
     atom:   14    charge:    3.1998    magn:    0.9889    constr:    0.0000
     atom:   15    charge:    3.1998    magn:    0.9889    constr:    0.0000
     atom:   16    charge:    3.1996    magn:    0.9781    constr:    0.0000
     atom:   17    charge:    3.1996    magn:    0.9781    constr:    0.0000
     atom:   18    charge:    3.1995    magn:    0.9953    constr:    0.0000
     atom:   19    charge:    3.1994    magn:    0.9856    constr:    0.0000
     atom:   20    charge:    3.1983    magn:    0.9862    constr:    0.0000
     atom:   21    charge:    3.1983    magn:    0.9862    constr:    0.0000
     atom:   22    charge:    3.2005    magn:    0.9908    constr:    0.0000
     atom:   23    charge:    3.2005    magn:    0.9908    constr:    0.0000
     atom:   24    charge:    3.1999    magn:    0.9907    constr:    0.0000
     atom:   25    charge:    3.2010    magn:    0.9897    constr:    0.0000
     atom:   26    charge:    3.2004    magn:    0.9882    constr:    0.0000
     atom:   27    charge:    3.2004    magn:    0.9882    constr:    0.0000
     atom:   28    charge:    3.2009    magn:    0.9964    constr:    0.0000
     atom:   29    charge:    3.2009    magn:    0.9964    constr:    0.0000
     atom:   30    charge:    3.2010    magn:    0.9949    constr:    0.0000
     atom:   31    charge:    3.2049    magn:    1.0112    constr:    0.0000
     atom:   32    charge:    3.2047    magn:    1.0111    constr:    0.0000
     atom:   33    charge:    3.2047    magn:    1.0111    constr:    0.0000
     atom:   34    charge:    3.2142    magn:    1.0086    constr:    0.0000
     atom:   35    charge:    3.2142    magn:    1.0086    constr:    0.0000
     atom:   36    charge:    3.2132    magn:    1.0074    constr:    0.0000
     atom:   37    charge:    2.0455    magn:    0.3980    constr:    0.0000

     total cpu time spent up to now is     1391.8 secs

     total energy              =   -2918.77406536 Ry
     Harris-Foulkes estimate   =   -2918.81146355 Ry
     estimated scf accuracy    <       0.60471964 Ry

     total magnetization       =    65.15 Bohr mag/cell
     absolute magnetization    =    69.48 Bohr mag/cell

     iteration # 13     ecut=    44.10 Ry     beta=0.10
     Davidson diagonalization with overlap
     ethr =  1.83E-04,  avg # of iterations =  1.7

     negative rho (up, down):  1.566E-02 1.489E-02
 
     Adding external electric field

     Computed dipole along edir(3) : 
        Dipole               -0.1023 Ry au,         -0.2600 Debye
        Dipole field         -0.0001 Ry au
 
        Potential amp.        0.0150 Ry
        Total length         73.7482 bohr
 
 
     Adding external electric field

     Computed dipole along edir(3) : 
        Dipole               -0.1023 Ry au,         -0.2600 Debye
        Dipole field         -0.0001 Ry au
 
        Potential amp.        0.0150 Ry
        Total length         73.7482 bohr
 
 
     Magnetic moment per site:
     atom:    1    charge:    3.2152    magn:    0.9954    constr:    0.0000
     atom:    2    charge:    3.2187    magn:    0.9905    constr:    0.0000
     atom:    3    charge:    3.2186    magn:    0.9905    constr:    0.0000
     atom:    4    charge:    3.2110    magn:    0.9928    constr:    0.0000
     atom:    5    charge:    3.2110    magn:    0.9928    constr:    0.0000
     atom:    6    charge:    3.2060    magn:    0.9900    constr:    0.0000
     atom:    7    charge:    3.1900    magn:    0.9455    constr:    0.0000
     atom:    8    charge:    3.2051    magn:    0.9698    constr:    0.0000
     atom:    9    charge:    3.2051    magn:    0.9699    constr:    0.0000
     atom:   10    charge:    3.2011    magn:    0.9672    constr:    0.0000
     atom:   11    charge:    3.2011    magn:    0.9672    constr:    0.0000
     atom:   12    charge:    3.2008    magn:    0.9635    constr:    0.0000
     atom:   13    charge:    3.2007    magn:    0.9704    constr:    0.0000
     atom:   14    charge:    3.2018    magn:    0.9608    constr:    0.0000
     atom:   15    charge:    3.2018    magn:    0.9608    constr:    0.0000
     atom:   16    charge:    3.1990    magn:    0.9503    constr:    0.0000
     atom:   17    charge:    3.1990    magn:    0.9503    constr:    0.0000
     atom:   18    charge:    3.2001    magn:    0.9675    constr:    0.0000
     atom:   19    charge:    3.1997    magn:    0.9582    constr:    0.0000
     atom:   20    charge:    3.2000    magn:    0.9575    constr:    0.0000
     atom:   21    charge:    3.2000    magn:    0.9575    constr:    0.0000
     atom:   22    charge:    3.2011    magn:    0.9634    constr:    0.0000
     atom:   23    charge:    3.2011    magn:    0.9634    constr:    0.0000
     atom:   24    charge:    3.2016    magn:    0.9629    constr:    0.0000
     atom:   25    charge:    3.2005    magn:    0.9635    constr:    0.0000
     atom:   26    charge:    3.2012    magn:    0.9611    constr:    0.0000
     atom:   27    charge:    3.2012    magn:    0.9611    constr:    0.0000
     atom:   28    charge:    3.2017    magn:    0.9708    constr:    0.0000
     atom:   29    charge:    3.2017    magn:    0.9708    constr:    0.0000
     atom:   30    charge:    3.2020    magn:    0.9698    constr:    0.0000
     atom:   31    charge:    3.2068    magn:    0.9858    constr:    0.0000
     atom:   32    charge:    3.2070    magn:    0.9857    constr:    0.0000
     atom:   33    charge:    3.2070    magn:    0.9857    constr:    0.0000
     atom:   34    charge:    3.2165    magn:    0.9818    constr:    0.0000
     atom:   35    charge:    3.2165    magn:    0.9818    constr:    0.0000
     atom:   36    charge:    3.2178    magn:    0.9789    constr:    0.0000
     atom:   37    charge:    2.0367    magn:    0.3233    constr:    0.0000

     total cpu time spent up to now is     1490.6 secs

     total energy              =   -2918.82096767 Ry
     Harris-Foulkes estimate   =   -2918.81507877 Ry
     estimated scf accuracy    <       0.36836357 Ry

     total magnetization       =    64.41 Bohr mag/cell
     absolute magnetization    =    69.04 Bohr mag/cell

     iteration # 14     ecut=    44.10 Ry     beta=0.10
     Davidson diagonalization with overlap
     ethr =  1.12E-04,  avg # of iterations =  1.0

     negative rho (up, down):  1.466E-02 1.443E-02
 
     Adding external electric field

     Computed dipole along edir(3) : 
        Dipole               -0.1048 Ry au,         -0.2665 Debye
        Dipole field         -0.0001 Ry au
 
        Potential amp.        0.0153 Ry
        Total length         73.7482 bohr
 
 
     Adding external electric field

     Computed dipole along edir(3) : 
        Dipole               -0.1048 Ry au,         -0.2665 Debye
        Dipole field         -0.0001 Ry au
 
        Potential amp.        0.0153 Ry
        Total length         73.7482 bohr
 
 
     Magnetic moment per site:
     atom:    1    charge:    3.2155    magn:    0.9929    constr:    0.0000
     atom:    2    charge:    3.2186    magn:    0.9886    constr:    0.0000
     atom:    3    charge:    3.2186    magn:    0.9886    constr:    0.0000
     atom:    4    charge:    3.2112    magn:    0.9905    constr:    0.0000
     atom:    5    charge:    3.2112    magn:    0.9905    constr:    0.0000
     atom:    6    charge:    3.2058    magn:    0.9881    constr:    0.0000
     atom:    7    charge:    3.1915    magn:    0.9398    constr:    0.0000
     atom:    8    charge:    3.2049    magn:    0.9676    constr:    0.0000
     atom:    9    charge:    3.2049    magn:    0.9676    constr:    0.0000
     atom:   10    charge:    3.2009    magn:    0.9646    constr:    0.0000
     atom:   11    charge:    3.2009    magn:    0.9646    constr:    0.0000
     atom:   12    charge:    3.2005    magn:    0.9610    constr:    0.0000
     atom:   13    charge:    3.2008    magn:    0.9676    constr:    0.0000
     atom:   14    charge:    3.2014    magn:    0.9582    constr:    0.0000
     atom:   15    charge:    3.2014    magn:    0.9582    constr:    0.0000
     atom:   16    charge:    3.1993    magn:    0.9469    constr:    0.0000
     atom:   17    charge:    3.1993    magn:    0.9470    constr:    0.0000
     atom:   18    charge:    3.2001    magn:    0.9644    constr:    0.0000
     atom:   19    charge:    3.2003    magn:    0.9548    constr:    0.0000
     atom:   20    charge:    3.2000    magn:    0.9545    constr:    0.0000
     atom:   21    charge:    3.2000    magn:    0.9545    constr:    0.0000
     atom:   22    charge:    3.2015    magn:    0.9601    constr:    0.0000
     atom:   23    charge:    3.2015    magn:    0.9601    constr:    0.0000
     atom:   24    charge:    3.2012    magn:    0.9603    constr:    0.0000
     atom:   25    charge:    3.2010    magn:    0.9603    constr:    0.0000
     atom:   26    charge:    3.2008    magn:    0.9585    constr:    0.0000
     atom:   27    charge:    3.2008    magn:    0.9585    constr:    0.0000
     atom:   28    charge:    3.2021    magn:    0.9681    constr:    0.0000
     atom:   29    charge:    3.2021    magn:    0.9681    constr:    0.0000
     atom:   30    charge:    3.2016    magn:    0.9677    constr:    0.0000
     atom:   31    charge:    3.2072    magn:    0.9832    constr:    0.0000
     atom:   32    charge:    3.2068    magn:    0.9836    constr:    0.0000
     atom:   33    charge:    3.2068    magn:    0.9836    constr:    0.0000
     atom:   34    charge:    3.2172    magn:    0.9792    constr:    0.0000
     atom:   35    charge:    3.2172    magn:    0.9792    constr:    0.0000
     atom:   36    charge:    3.2173    magn:    0.9774    constr:    0.0000
     atom:   37    charge:    2.0365    magn:    0.3132    constr:    0.0000

     total cpu time spent up to now is     1586.7 secs

     total energy              =   -2918.83332701 Ry
     Harris-Foulkes estimate   =   -2918.83307606 Ry
     estimated scf accuracy    <       0.03689310 Ry

     total magnetization       =    63.64 Bohr mag/cell
     absolute magnetization    =    68.96 Bohr mag/cell

     iteration # 15     ecut=    44.10 Ry     beta=0.10
     Davidson diagonalization with overlap
     ethr =  1.12E-05,  avg # of iterations = 10.6

     negative rho (up, down):  1.373E-02 1.413E-02
 
     Adding external electric field

     Computed dipole along edir(3) : 
        Dipole               -0.1076 Ry au,         -0.2736 Debye
        Dipole field         -0.0001 Ry au
 
        Potential amp.        0.0157 Ry
        Total length         73.7482 bohr
 
 
     Adding external electric field

     Computed dipole along edir(3) : 
        Dipole               -0.1076 Ry au,         -0.2736 Debye
        Dipole field         -0.0001 Ry au
 
        Potential amp.        0.0157 Ry
        Total length         73.7482 bohr
 
 
     Magnetic moment per site:
     atom:    1    charge:    3.2151    magn:    0.9911    constr:    0.0000
     atom:    2    charge:    3.2191    magn:    0.9870    constr:    0.0000
     atom:    3    charge:    3.2191    magn:    0.9870    constr:    0.0000
     atom:    4    charge:    3.2116    magn:    0.9878    constr:    0.0000
     atom:    5    charge:    3.2116    magn:    0.9878    constr:    0.0000
     atom:    6    charge:    3.2068    magn:    0.9852    constr:    0.0000
     atom:    7    charge:    3.1917    magn:    0.9322    constr:    0.0000
     atom:    8    charge:    3.2054    magn:    0.9647    constr:    0.0000
     atom:    9    charge:    3.2054    magn:    0.9647    constr:    0.0000
     atom:   10    charge:    3.2003    magn:    0.9616    constr:    0.0000
     atom:   11    charge:    3.2003    magn:    0.9616    constr:    0.0000
     atom:   12    charge:    3.2004    magn:    0.9577    constr:    0.0000
     atom:   13    charge:    3.2000    magn:    0.9647    constr:    0.0000
     atom:   14    charge:    3.2007    magn:    0.9551    constr:    0.0000
     atom:   15    charge:    3.2007    magn:    0.9551    constr:    0.0000
     atom:   16    charge:    3.1987    magn:    0.9433    constr:    0.0000
     atom:   17    charge:    3.1987    magn:    0.9433    constr:    0.0000
     atom:   18    charge:    3.1996    magn:    0.9606    constr:    0.0000
     atom:   19    charge:    3.1993    magn:    0.9518    constr:    0.0000
     atom:   20    charge:    3.1992    magn:    0.9512    constr:    0.0000
     atom:   21    charge:    3.1991    magn:    0.9512    constr:    0.0000
     atom:   22    charge:    3.2008    magn:    0.9568    constr:    0.0000
     atom:   23    charge:    3.2008    magn:    0.9568    constr:    0.0000
     atom:   24    charge:    3.2005    magn:    0.9571    constr:    0.0000
     atom:   25    charge:    3.2007    magn:    0.9567    constr:    0.0000
     atom:   26    charge:    3.2006    magn:    0.9550    constr:    0.0000
     atom:   27    charge:    3.2006    magn:    0.9550    constr:    0.0000
     atom:   28    charge:    3.2023    magn:    0.9651    constr:    0.0000
     atom:   29    charge:    3.2023    magn:    0.9651    constr:    0.0000
     atom:   30    charge:    3.2023    magn:    0.9646    constr:    0.0000
     atom:   31    charge:    3.2075    magn:    0.9803    constr:    0.0000
     atom:   32    charge:    3.2076    magn:    0.9803    constr:    0.0000
     atom:   33    charge:    3.2076    magn:    0.9803    constr:    0.0000
     atom:   34    charge:    3.2174    magn:    0.9775    constr:    0.0000
     atom:   35    charge:    3.2174    magn:    0.9775    constr:    0.0000
     atom:   36    charge:    3.2177    magn:    0.9757    constr:    0.0000
     atom:   37    charge:    2.0370    magn:    0.2979    constr:    0.0000

     total cpu time spent up to now is     1734.7 secs

     total energy              =   -2918.83607326 Ry
     Harris-Foulkes estimate   =   -2918.83466667 Ry
     estimated scf accuracy    <       0.01331778 Ry

     total magnetization       =    63.53 Bohr mag/cell
     absolute magnetization    =    68.95 Bohr mag/cell

     iteration # 16     ecut=    44.10 Ry     beta=0.10
     Davidson diagonalization with overlap
     ethr =  4.04E-06,  avg # of iterations =  2.8

     negative rho (up, down):  1.272E-02 1.381E-02
 
     Adding external electric field

     Computed dipole along edir(3) : 
        Dipole               -0.1207 Ry au,         -0.3067 Debye
        Dipole field         -0.0001 Ry au
 
        Potential amp.        0.0176 Ry
        Total length         73.7482 bohr
 
 
     Adding external electric field

     Computed dipole along edir(3) : 
        Dipole               -0.1207 Ry au,         -0.3067 Debye
        Dipole field         -0.0001 Ry au
 
        Potential amp.        0.0176 Ry
        Total length         73.7482 bohr
 
 
     Magnetic moment per site:
     atom:    1    charge:    3.2156    magn:    0.9909    constr:    0.0000
     atom:    2    charge:    3.2195    magn:    0.9874    constr:    0.0000
     atom:    3    charge:    3.2195    magn:    0.9874    constr:    0.0000
     atom:    4    charge:    3.2116    magn:    0.9878    constr:    0.0000
     atom:    5    charge:    3.2116    magn:    0.9878    constr:    0.0000
     atom:    6    charge:    3.2070    magn:    0.9853    constr:    0.0000
     atom:    7    charge:    3.1908    magn:    0.9293    constr:    0.0000
     atom:    8    charge:    3.2052    magn:    0.9648    constr:    0.0000
     atom:    9    charge:    3.2052    magn:    0.9648    constr:    0.0000
     atom:   10    charge:    3.2005    magn:    0.9610    constr:    0.0000
     atom:   11    charge:    3.2005    magn:    0.9610    constr:    0.0000
     atom:   12    charge:    3.2004    magn:    0.9572    constr:    0.0000
     atom:   13    charge:    3.2003    magn:    0.9640    constr:    0.0000
     atom:   14    charge:    3.2010    magn:    0.9543    constr:    0.0000
     atom:   15    charge:    3.2010    magn:    0.9543    constr:    0.0000
     atom:   16    charge:    3.1990    magn:    0.9421    constr:    0.0000
     atom:   17    charge:    3.1990    magn:    0.9421    constr:    0.0000
     atom:   18    charge:    3.1998    magn:    0.9594    constr:    0.0000
     atom:   19    charge:    3.1996    magn:    0.9509    constr:    0.0000
     atom:   20    charge:    3.1995    magn:    0.9502    constr:    0.0000
     atom:   21    charge:    3.1995    magn:    0.9502    constr:    0.0000
     atom:   22    charge:    3.2009    magn:    0.9560    constr:    0.0000
     atom:   23    charge:    3.2009    magn:    0.9560    constr:    0.0000
     atom:   24    charge:    3.2007    magn:    0.9564    constr:    0.0000
     atom:   25    charge:    3.2006    magn:    0.9562    constr:    0.0000
     atom:   26    charge:    3.2006    magn:    0.9543    constr:    0.0000
     atom:   27    charge:    3.2006    magn:    0.9543    constr:    0.0000
     atom:   28    charge:    3.2022    magn:    0.9652    constr:    0.0000
     atom:   29    charge:    3.2022    magn:    0.9652    constr:    0.0000
     atom:   30    charge:    3.2023    magn:    0.9648    constr:    0.0000
     atom:   31    charge:    3.2075    magn:    0.9802    constr:    0.0000
     atom:   32    charge:    3.2075    magn:    0.9804    constr:    0.0000
     atom:   33    charge:    3.2075    magn:    0.9804    constr:    0.0000
     atom:   34    charge:    3.2178    magn:    0.9779    constr:    0.0000
     atom:   35    charge:    3.2178    magn:    0.9779    constr:    0.0000
     atom:   36    charge:    3.2180    magn:    0.9762    constr:    0.0000
     atom:   37    charge:    2.0361    magn:    0.2911    constr:    0.0000

     total cpu time spent up to now is     1837.8 secs

     total energy              =   -2918.83701998 Ry
     Harris-Foulkes estimate   =   -2918.83704146 Ry
     estimated scf accuracy    <       0.02457415 Ry

     total magnetization       =    63.41 Bohr mag/cell
     absolute magnetization    =    68.95 Bohr mag/cell

     iteration # 17     ecut=    44.10 Ry     beta=0.10
     Davidson diagonalization with overlap
     ethr =  4.04E-06,  avg # of iterations =  1.0

     negative rho (up, down):  1.190E-02 1.358E-02
 
     Adding external electric field

     Computed dipole along edir(3) : 
        Dipole               -0.0967 Ry au,         -0.2457 Debye
        Dipole field         -0.0001 Ry au
 
        Potential amp.        0.0141 Ry
        Total length         73.7482 bohr
 
 
     Adding external electric field

     Computed dipole along edir(3) : 
        Dipole               -0.0967 Ry au,         -0.2457 Debye
        Dipole field         -0.0001 Ry au
 
        Potential amp.        0.0141 Ry
        Total length         73.7482 bohr
 
 
     Magnetic moment per site:
     atom:    1    charge:    3.2157    magn:    0.9910    constr:    0.0000
     atom:    2    charge:    3.2195    magn:    0.9877    constr:    0.0000
     atom:    3    charge:    3.2195    magn:    0.9877    constr:    0.0000
     atom:    4    charge:    3.2114    magn:    0.9882    constr:    0.0000
     atom:    5    charge:    3.2114    magn:    0.9882    constr:    0.0000
     atom:    6    charge:    3.2070    magn:    0.9855    constr:    0.0000
     atom:    7    charge:    3.1910    magn:    0.9280    constr:    0.0000
     atom:    8    charge:    3.2052    magn:    0.9650    constr:    0.0000
     atom:    9    charge:    3.2052    magn:    0.9650    constr:    0.0000
     atom:   10    charge:    3.2006    magn:    0.9609    constr:    0.0000
     atom:   11    charge:    3.2006    magn:    0.9609    constr:    0.0000
     atom:   12    charge:    3.2006    magn:    0.9571    constr:    0.0000
     atom:   13    charge:    3.2003    magn:    0.9640    constr:    0.0000
     atom:   14    charge:    3.2010    magn:    0.9542    constr:    0.0000
     atom:   15    charge:    3.2010    magn:    0.9542    constr:    0.0000
     atom:   16    charge:    3.1989    magn:    0.9420    constr:    0.0000
     atom:   17    charge:    3.1989    magn:    0.9420    constr:    0.0000
     atom:   18    charge:    3.1997    magn:    0.9593    constr:    0.0000
     atom:   19    charge:    3.1996    magn:    0.9508    constr:    0.0000
     atom:   20    charge:    3.1995    magn:    0.9501    constr:    0.0000
     atom:   21    charge:    3.1995    magn:    0.9501    constr:    0.0000
     atom:   22    charge:    3.2008    magn:    0.9559    constr:    0.0000
     atom:   23    charge:    3.2008    magn:    0.9559    constr:    0.0000
     atom:   24    charge:    3.2007    magn:    0.9563    constr:    0.0000
     atom:   25    charge:    3.2008    magn:    0.9560    constr:    0.0000
     atom:   26    charge:    3.2009    magn:    0.9541    constr:    0.0000
     atom:   27    charge:    3.2009    magn:    0.9541    constr:    0.0000
     atom:   28    charge:    3.2024    magn:    0.9651    constr:    0.0000
     atom:   29    charge:    3.2024    magn:    0.9651    constr:    0.0000
     atom:   30    charge:    3.2025    magn:    0.9648    constr:    0.0000
     atom:   31    charge:    3.2077    magn:    0.9802    constr:    0.0000
     atom:   32    charge:    3.2077    magn:    0.9804    constr:    0.0000
     atom:   33    charge:    3.2077    magn:    0.9804    constr:    0.0000
     atom:   34    charge:    3.2178    magn:    0.9782    constr:    0.0000
     atom:   35    charge:    3.2178    magn:    0.9782    constr:    0.0000
     atom:   36    charge:    3.2180    magn:    0.9765    constr:    0.0000
     atom:   37    charge:    2.0357    magn:    0.2889    constr:    0.0000

     total cpu time spent up to now is     1933.8 secs

     total energy              =   -2918.83755323 Ry
     Harris-Foulkes estimate   =   -2918.83779198 Ry
     estimated scf accuracy    <       0.04220581 Ry

     total magnetization       =    63.37 Bohr mag/cell
     absolute magnetization    =    68.96 Bohr mag/cell

     iteration # 18     ecut=    44.10 Ry     beta=0.10
     Davidson diagonalization with overlap
     ethr =  4.04E-06,  avg # of iterations =  1.0

     negative rho (up, down):  1.100E-02 1.351E-02
 
     Adding external electric field

     Computed dipole along edir(3) : 
        Dipole               -0.0982 Ry au,         -0.2497 Debye
        Dipole field         -0.0001 Ry au
 
        Potential amp.        0.0144 Ry
        Total length         73.7482 bohr
 
 
     Adding external electric field

     Computed dipole along edir(3) : 
        Dipole               -0.0982 Ry au,         -0.2497 Debye
        Dipole field         -0.0001 Ry au
 
        Potential amp.        0.0144 Ry
        Total length         73.7482 bohr
 
 
     Magnetic moment per site:
     atom:    1    charge:    3.2163    magn:    0.9906    constr:    0.0000
     atom:    2    charge:    3.2199    magn:    0.9891    constr:    0.0000
     atom:    3    charge:    3.2199    magn:    0.9891    constr:    0.0000
     atom:    4    charge:    3.2123    magn:    0.9871    constr:    0.0000
     atom:    5    charge:    3.2123    magn:    0.9871    constr:    0.0000
     atom:    6    charge:    3.2082    magn:    0.9846    constr:    0.0000
     atom:    7    charge:    3.1908    magn:    0.9186    constr:    0.0000
     atom:    8    charge:    3.2058    magn:    0.9642    constr:    0.0000
     atom:    9    charge:    3.2058    magn:    0.9642    constr:    0.0000
     atom:   10    charge:    3.2004    magn:    0.9593    constr:    0.0000
     atom:   11    charge:    3.2004    magn:    0.9593    constr:    0.0000
     atom:   12    charge:    3.2003    magn:    0.9555    constr:    0.0000
     atom:   13    charge:    3.2001    magn:    0.9622    constr:    0.0000
     atom:   14    charge:    3.2009    magn:    0.9522    constr:    0.0000
     atom:   15    charge:    3.2009    magn:    0.9522    constr:    0.0000
     atom:   16    charge:    3.1985    magn:    0.9394    constr:    0.0000
     atom:   17    charge:    3.1985    magn:    0.9394    constr:    0.0000
     atom:   18    charge:    3.1990    magn:    0.9565    constr:    0.0000
[...]
    -2.4001  -2.3818  -2.3666  -2.3421  -2.3178  -2.3058  -2.2938  -2.2703
    -2.2524  -2.2451  -2.2239  -2.2175  -2.2097  -2.2053  -2.1809  -2.1608
    -2.1419  -2.1272  -2.1042  -2.0911  -2.0623  -2.0361  -2.0296  -2.0078
    -1.9845  -1.9699  -1.9435  -1.9314  -1.9194  -1.8968  -1.8618  -1.8442
    -1.8366  -1.8206  -1.7955  -1.7827  -1.7383  -1.7128  -1.6945  -1.6657
    -1.6502  -1.6275  -1.6235  -1.6098  -1.6033  -1.5940  -1.5770  -1.5359
    -1.5170  -1.4999  -1.4792  -1.4612  -1.4344  -1.3998  -1.3835  -1.3557
    -1.2560  -1.0528  -0.9075  -0.8350  -0.5897  -0.3651  -0.3040  -0.0329
     0.1756   0.2121   0.3768   0.5165   0.6760   0.8885   1.1752   1.3309
     1.6794   1.7145   1.7709   1.9215   2.1066   2.1977   2.5987   2.8296
     2.9402   3.1713   3.3424   3.6157   3.8776   3.9001   4.1386   4.2163
     4.3010   4.4041   4.5317   4.5855   4.7519   4.7957   4.9553   4.9786
     5.0560   5.1509   5.2159   5.3391   5.4112   5.4603   5.5235   5.6338
     5.6683   5.7549   5.7787   5.8175   5.8985   6.0018   6.0414   6.1025
     6.1480   6.2095   6.2927   6.3506   6.4106   6.4844   6.5215   6.5594
     6.6015   6.6340   6.7606   6.8330   6.8617   6.9486   6.9981   7.0252
     7.0730

 ------ SPIN DOWN ----------


          k = 0.0000 0.0000 0.0000 ( 62705 PWs)   bands (ev):

   -18.5614  -9.1390  -7.9156  -6.5983  -6.5952  -6.2473  -5.6986  -5.6670
    -5.6547  -5.6537  -5.2030  -4.9758  -4.7989  -4.7190  -4.6558  -4.6061
    -4.4262  -4.3913  -4.3672  -4.3456  -4.3154  -4.2370  -4.1888  -4.0269
    -3.9965  -3.9873  -3.9553  -3.9102  -3.8700  -3.7844  -3.6489  -3.6405
    -3.6032  -3.5557  -3.5417  -3.5154  -3.5040  -3.4626  -3.4249  -3.3274
    -3.2837  -3.2827  -3.2629  -3.2271  -3.0789  -3.0655  -3.0130  -2.9878
    -2.9485  -2.9428  -2.7590  -2.7497  -2.7170  -2.6884  -2.6800  -2.6733
    -2.6338  -2.6118  -2.5959  -2.5564  -2.4959  -2.4890  -2.4804  -2.4486
    -2.3882  -2.3750  -2.3192  -2.3139  -2.2693  -2.2482  -2.2442  -2.2019
    -2.1789  -2.1716  -2.1297  -2.0756  -2.0591  -2.0391  -1.9961  -1.9867
    -1.9613  -1.9600  -1.8938  -1.8801  -1.8252  -1.8072  -1.7422  -1.7254
    -1.7090  -1.6755  -1.6630  -1.6461  -1.6340  -1.6262  -1.6233  -1.6001
    -1.5990  -1.5672  -1.5151  -1.5115  -1.4953  -1.4938  -1.4834  -1.4361
    -1.4226  -1.4112  -1.4046  -1.3873  -1.3466  -1.3058  -1.2793  -1.2727
    -1.2613  -1.2210  -1.1820  -1.1401  -1.1124  -1.0825  -1.0728  -1.0377
    -0.9971  -0.9524  -0.9301  -0.8937  -0.8876  -0.8537  -0.8534  -0.7833
    -0.7832  -0.7171  -0.7084  -0.6952  -0.6823  -0.6569  -0.6435  -0.6286
    -0.5514  -0.5350  -0.4943  -0.4466  -0.4434  -0.4146  -0.3989  -0.3788
    -0.3546  -0.3289  -0.3043  -0.3041  -0.2879  -0.2560  -0.2450  -0.2278
    -0.2187  -0.1963  -0.1883  -0.1631  -0.1524  -0.1439  -0.1101  -0.0904
    -0.0776  -0.0743  -0.0528  -0.0423  -0.0383  -0.0248  -0.0179   0.0193
     0.0328   0.0376   0.1105   0.1132   0.1500   0.1580   0.1772   0.1878
     0.1888   0.2226   0.2427   0.2562   0.2577   0.2700   0.2916   0.2936
     0.3151   0.3261   0.3514   0.3651   0.3709   0.3846   0.4331   0.4908
     0.5308   0.5491   0.6269   0.6736   0.7546   0.8446   1.0232   1.3313
     1.5097   1.5164   1.6126   1.6136   1.7133   1.8308   1.8354   2.1099
     2.1915   2.2156   2.3333   2.4123   2.6380   2.9854   3.1023   3.2671
     3.3407   3.3835   3.3986   3.4565   3.5525   3.5846   3.8318   3.8646
     3.9978   4.2365   4.5800   4.6479   4.7974   5.0316   5.0567   5.1706
     5.2243   5.3525   5.5882   5.6645   5.7359   5.7618   6.0149   6.0359
     6.0832   6.1349   6.1528   6.2773   6.3594   6.4771   6.5354   6.5808
     6.6250   6.6405   6.6654   6.8264   6.9075   7.0435   7.0839   7.1130
     7.2071   7.2266   7.2480   7.3126   7.4416   7.4559   7.4727   7.5261
     7.5481

          k = 0.0000 0.0440 0.0000 ( 62728 PWs)   bands (ev):

   -18.5613  -8.8294  -7.9372  -7.6212  -6.7987  -5.9855  -5.4941  -5.4338
    -5.3228  -5.1649  -5.1238  -4.9177  -4.8541  -4.7801  -4.6083  -4.5558
    -4.5294  -4.4643  -4.4268  -4.3164  -4.2684  -4.1832  -4.1127  -4.0554
    -4.0230  -3.9571  -3.9339  -3.8430  -3.8352  -3.7917  -3.7405  -3.7234
    -3.6749  -3.6518  -3.6380  -3.6035  -3.5312  -3.5130  -3.4780  -3.3896
    -3.3518  -3.3271  -3.2611  -3.2074  -3.1712  -3.0984  -3.0546  -3.0187
    -2.9312  -2.8963  -2.7910  -2.7623  -2.7494  -2.7309  -2.6595  -2.6507
    -2.6468  -2.6152  -2.5650  -2.5559  -2.5157  -2.4647  -2.4526  -2.4406
    -2.3953  -2.3505  -2.3378  -2.3186  -2.2732  -2.2523  -2.2433  -2.2215
    -2.1651  -2.1292  -2.1175  -2.0918  -2.0669  -2.0494  -2.0058  -1.9951
    -1.9842  -1.9361  -1.9222  -1.9142  -1.8859  -1.8788  -1.8433  -1.7929
    -1.7609  -1.7562  -1.7311  -1.7048  -1.6799  -1.6648  -1.6417  -1.6046
    -1.5828  -1.5568  -1.5415  -1.5143  -1.5043  -1.4790  -1.4549  -1.4390
    -1.4246  -1.4066  -1.3889  -1.3520  -1.3232  -1.3151  -1.2600  -1.2353
    -1.2026  -1.1759  -1.1557  -1.1294  -1.0975  -1.0853  -1.0465  -1.0357
    -1.0289  -1.0154  -0.9992  -0.9484  -0.9426  -0.9052  -0.8831  -0.8676
    -0.8411  -0.8116  -0.7694  -0.7494  -0.7098  -0.6684  -0.6492  -0.6165
    -0.5949  -0.5830  -0.5676  -0.5369  -0.5096  -0.4786  -0.4638  -0.4412
    -0.4168  -0.3676  -0.3570  -0.3514  -0.3305  -0.3141  -0.2828  -0.2645
    -0.2450  -0.2323  -0.2234  -0.2039  -0.1929  -0.1602  -0.1002  -0.0737
    -0.0566  -0.0259  -0.0107   0.0091   0.0322   0.0820   0.1026   0.1161
     0.1477   0.1553   0.1752   0.2044   0.2194   0.2297   0.2369   0.2427
     0.2615   0.2804   0.2861   0.2963   0.3087   0.3426   0.3471   0.3661
     0.3730   0.3960   0.4168   0.4346   0.4383   0.4636   0.5329   0.5681
     0.6724   0.9072   0.9548   0.9978   1.0154   1.0396   1.1445   1.1964
     1.4618   1.5328   1.6445   1.6906   1.8880   1.9649   2.2444   2.3157
     2.4058   2.4445   2.5906   2.6062   2.6474   2.7398   2.8305   2.9527
     3.0485   3.0667   3.3876   3.4551   3.6400   3.7172   3.7593   3.8078
     3.9562   3.9789   4.1397   4.2377   4.3039   4.4698   4.5198   4.6564
     4.6924   4.9187   5.0712   5.1715   5.2729   5.3151   5.4594   5.7905
     5.8711   6.0900   6.3213   6.3568   6.5204   6.5602   6.6618   6.7731
     6.9197   6.9767   7.0339   7.1713   7.2571   7.2841   7.3346   7.3910
     7.4086   7.4900   7.5368   7.6277   7.7396   7.7439   7.7748   7.8143
     7.8418

          k = 0.0538 0.0000 0.0000 ( 62649 PWs)   bands (ev):

   -18.5605  -8.6806  -7.5667  -7.3057  -6.3971  -6.2665  -6.2620  -5.8505
    -5.5052  -5.4569  -5.3873  -5.3054  -5.2472  -4.9350  -4.8837  -4.8251
    -4.7162  -4.6028  -4.5403  -4.5183  -4.2380  -4.1474  -4.1152  -3.9452
    -3.9246  -3.8879  -3.8275  -3.7716  -3.7662  -3.5392  -3.4607  -3.4583
    -3.4385  -3.4164  -3.4021  -3.3902  -3.3782  -3.3620  -3.3493  -3.2751
    -3.2731  -3.2319  -3.1805  -3.1693  -3.1472  -3.1394  -3.0729  -2.9828
    -2.9621  -2.9261  -2.9039  -2.8227  -2.7787  -2.7772  -2.7150  -2.6614
    -2.6132  -2.6051  -2.5654  -2.5414  -2.4998  -2.4913  -2.4679  -2.4423
    -2.4006  -2.3739  -2.3680  -2.2882  -2.2679  -2.2060  -2.1989  -2.1366
    -2.0997  -2.0907  -2.0518  -2.0356  -2.0231  -1.9812  -1.9202  -1.8973
    -1.8722  -1.8570  -1.8356  -1.8249  -1.7719  -1.7480  -1.7353  -1.7289
    -1.7179  -1.6644  -1.6538  -1.6436  -1.6378  -1.5965  -1.5801  -1.5679
    -1.5575  -1.5572  -1.5340  -1.5251  -1.4974  -1.4963  -1.4922  -1.4652
    -1.4542  -1.4157  -1.4070  -1.3952  -1.3867  -1.3382  -1.3247  -1.2936
    -1.2697  -1.2022  -1.1694  -1.1350  -1.1241  -1.1081  -1.0518  -1.0306
    -1.0062  -0.9989  -0.9540  -0.9106  -0.8955  -0.8758  -0.8146  -0.8062
    -0.7392  -0.7120  -0.6722  -0.6672  -0.5862  -0.5668  -0.5395  -0.5292
    -0.5180  -0.5078  -0.4778  -0.4652  -0.4287  -0.4215  -0.4127  -0.3955
    -0.3910  -0.3362  -0.3311  -0.3158  -0.2841  -0.2784  -0.2633  -0.2429
    -0.2258  -0.1746  -0.1618  -0.1612  -0.1312  -0.1186  -0.1107  -0.1005
    -0.0612  -0.0488  -0.0329  -0.0289  -0.0139   0.0013   0.0395   0.0402
     0.0486   0.0842   0.1029   0.1154   0.1255   0.1381   0.1552   0.1762
     0.1822   0.1984   0.2249   0.2378   0.2478   0.2775   0.2828   0.2986
     0.3100   0.3262   0.3320   0.3431   0.3729   0.3761   0.4039   0.4133
     0.4251   0.4528   0.4656   0.4756   0.4940   0.5512   0.6843   0.7066
     0.8204   0.8607   0.9924   1.2277   1.3149   1.5219   1.8659   2.2137
     2.3286   2.6823   3.0063   3.1076   3.4061   3.5287   3.7466   3.8657
     3.9536   3.9660   4.0098   4.1102   4.2373   4.3832   4.4757   4.6412
     4.6835   4.7748   4.7893   4.9130   4.9584   5.0855   5.2395   5.2921
     5.4019   5.4568   5.4994   5.5999   5.7293   5.7964   5.9041   5.9291
     5.9815   6.1475   6.1681   6.2303   6.3219   6.4156   6.4464   6.5148
     6.5755   6.6282   6.6602   6.7130   6.7473   6.8195   6.9115   6.9519
     6.9988   7.0186   7.0681   7.1380   7.2044   7.2102   7.2730   7.3429
     7.4796

          k = 0.0538 0.0440 0.0000 ( 62686 PWs)   bands (ev):

   -18.5605  -8.3793  -7.5203  -7.2837  -7.0323  -6.5048  -6.2891  -6.1440
    -5.6293  -5.5204  -5.1553  -5.0643  -4.9731  -4.7824  -4.6975  -4.5972
    -4.5185  -4.5030  -4.4594  -4.3772  -4.3255  -4.1996  -4.0670  -4.0306
    -3.9871  -3.9042  -3.8713  -3.8462  -3.7418  -3.7162  -3.6720  -3.6408
    -3.5890  -3.5368  -3.5015  -3.4791  -3.4635  -3.4129  -3.3067  -3.2375
    -3.1947  -3.1553  -3.1398  -3.1263  -3.0875  -3.0508  -3.0177  -2.9875
    -2.9339  -2.8903  -2.8762  -2.8352  -2.8028  -2.7794  -2.7314  -2.6827
    -2.6618  -2.5901  -2.5481  -2.5239  -2.5093  -2.4690  -2.4335  -2.4266
    -2.3812  -2.3390  -2.3087  -2.2684  -2.2392  -2.2173  -2.2065  -2.1935
    -2.1836  -2.1189  -2.0872  -2.0600  -2.0336  -2.0165  -1.9958  -1.9559
    -1.9425  -1.9054  -1.8794  -1.8584  -1.8376  -1.8131  -1.7855  -1.7678
    -1.7475  -1.7251  -1.7086  -1.6806  -1.6498  -1.6087  -1.5883  -1.5609
    -1.5519  -1.5431  -1.5132  -1.4827  -1.4629  -1.4559  -1.4260  -1.4177
    -1.4003  -1.3886  -1.3612  -1.3372  -1.3327  -1.3046  -1.2841  -1.2592
    -1.2459  -1.1983  -1.1768  -1.1565  -1.1359  -1.0942  -1.0686  -1.0418
    -1.0328  -1.0104  -0.9939  -0.9671  -0.9366  -0.9150  -0.8866  -0.8711
    -0.8405  -0.8238  -0.7938  -0.7368  -0.7278  -0.6495  -0.6381  -0.6132
    -0.5836  -0.5515  -0.4975  -0.4758  -0.4605  -0.4493  -0.4325  -0.4145
    -0.3988  -0.3753  -0.3544  -0.3285  -0.3162  -0.2925  -0.2766  -0.2503
    -0.2324  -0.2094  -0.1710  -0.1674  -0.1496  -0.1262  -0.1065  -0.0899
    -0.0718  -0.0600  -0.0376  -0.0125   0.0287   0.0502   0.0577   0.0800
     0.0940   0.1252   0.1513   0.1755   0.1795   0.2163   0.2438   0.2552
     0.2670   0.2986   0.3072   0.3146   0.3178   0.3374   0.3492   0.3635
     0.3816   0.3936   0.4053   0.4300   0.4381   0.4457   0.4716   0.4843
     0.4926   0.5379   0.6027   0.6271   0.7995   0.9491   1.0123   1.1248
     1.2157   1.2477   1.3618   1.4916   1.5269   1.7036   1.9718   2.1212
     2.4481   2.5573   2.6473   2.7265   2.8434   2.9579   3.2622   3.4221
     3.5537   3.6912   3.8369   3.9288   4.0996   4.1854   4.2994   4.4208
     4.4768   4.6126   4.7300   4.7769   4.9674   5.0123   5.0451   5.0927
     5.1749   5.2148   5.3697   5.4562   5.5101   5.5794   5.5937   5.6640
     5.7527   5.8044   5.8815   6.0541   6.1317   6.2395   6.2685   6.3029
     6.3964   6.4388   6.5112   6.5640   6.5809   6.6578   6.7868   6.8275
     6.8462   6.9746   7.0084   7.0643   7.1127   7.1603   7.1830   7.3263
     7.4528

          k = 0.0538-0.0440 0.0000 ( 62686 PWs)   bands (ev):

   -18.5605  -8.3793  -7.5202  -7.2837  -7.0323  -6.5048  -6.2891  -6.1440
    -5.6293  -5.5204  -5.1553  -5.0643  -4.9731  -4.7824  -4.6975  -4.5972
    -4.5184  -4.5030  -4.4594  -4.3772  -4.3256  -4.1996  -4.0670  -4.0306
    -3.9871  -3.9042  -3.8713  -3.8462  -3.7417  -3.7162  -3.6720  -3.6409
    -3.5890  -3.5367  -3.5014  -3.4792  -3.4635  -3.4128  -3.3067  -3.2375
    -3.1947  -3.1554  -3.1397  -3.1263  -3.0875  -3.0508  -3.0177  -2.9875
    -2.9338  -2.8903  -2.8762  -2.8352  -2.8027  -2.7796  -2.7314  -2.6827
    -2.6617  -2.5901  -2.5481  -2.5239  -2.5093  -2.4689  -2.4335  -2.4266
    -2.3812  -2.3390  -2.3087  -2.2684  -2.2391  -2.2173  -2.2066  -2.1934
    -2.1836  -2.1189  -2.0872  -2.0600  -2.0336  -2.0165  -1.9958  -1.9559
    -1.9425  -1.9053  -1.8794  -1.8584  -1.8376  -1.8132  -1.7855  -1.7677
    -1.7476  -1.7250  -1.7086  -1.6806  -1.6498  -1.6088  -1.5883  -1.5609
    -1.5519  -1.5432  -1.5132  -1.4827  -1.4630  -1.4559  -1.4260  -1.4176
    -1.4003  -1.3886  -1.3612  -1.3373  -1.3327  -1.3046  -1.2841  -1.2593
    -1.2458  -1.1983  -1.1768  -1.1565  -1.1358  -1.0942  -1.0685  -1.0417
    -1.0328  -1.0104  -0.9940  -0.9671  -0.9366  -0.9149  -0.8866  -0.8711
    -0.8405  -0.8238  -0.7939  -0.7368  -0.7278  -0.6495  -0.6381  -0.6132
    -0.5835  -0.5515  -0.4975  -0.4759  -0.4605  -0.4492  -0.4326  -0.4145
    -0.3988  -0.3753  -0.3544  -0.3285  -0.3162  -0.2925  -0.2766  -0.2503
    -0.2324  -0.2094  -0.1710  -0.1674  -0.1496  -0.1262  -0.1065  -0.0899
    -0.0719  -0.0600  -0.0377  -0.0125   0.0287   0.0502   0.0577   0.0800
     0.0941   0.1252   0.1513   0.1755   0.1795   0.2164   0.2438   0.2552
     0.2670   0.2986   0.3072   0.3146   0.3178   0.3374   0.3492   0.3635
     0.3816   0.3936   0.4053   0.4300   0.4381   0.4457   0.4717   0.4843
     0.4926   0.5379   0.6027   0.6272   0.7995   0.9491   1.0123   1.1248
     1.2157   1.2477   1.3618   1.4916   1.5269   1.7035   1.9718   2.1212
     2.4480   2.5573   2.6473   2.7265   2.8434   2.9579   3.2623   3.4221
     3.5536   3.6911   3.8368   3.9288   4.0996   4.1853   4.2994   4.4208
     4.4768   4.6127   4.7300   4.7767   4.9675   5.0123   5.0451   5.0927
     5.1750   5.2146   5.3698   5.4563   5.5100   5.5796   5.5937   5.6640
     5.7527   5.8044   5.8815   6.0539   6.1316   6.2398   6.2685   6.3029
     6.3964   6.4390   6.5111   6.5641   6.5805   6.6577   6.7869   6.8275
     6.8463   6.9746   7.0084   7.0642   7.1127   7.1603   7.1831   7.3263
     7.4528

     the Fermi energy is    -0.6603 ev

!    total energy              =   -2918.89335765 Ry
     Harris-Foulkes estimate   =   -2918.89317088 Ry
     estimated scf accuracy    <       0.00000061 Ry

     The total energy is the sum of the following terms:

     one-electron contribution =  -62298.24562142 Ry
     hartree contribution      =   31448.18304103 Ry
     xc contribution           =   -1336.23514083 Ry
     ewald contribution        =   29267.51019122 Ry
     electric field correction =       0.00005701 Ry
     smearing contrib. (-TS)   =      -0.10588466 Ry

     total magnetization       =    62.70 Bohr mag/cell
     absolute magnetization    =    69.07 Bohr mag/cell

     convergence has been achieved in  16 iterations

     Forces acting on atoms (Ry/au):


     negative rho (up, down):  7.818E-03 1.847E-02
     atom    1 type  1   force =    -0.00148969   -0.00000599   -0.00072670
     atom    2 type  1   force =    -0.00051232    0.00116129   -0.00103198
     atom    3 type  1   force =    -0.00051307   -0.00116224   -0.00116045
     atom    4 type  1   force =    -0.00042819    0.00042943    0.00085490
     atom    5 type  1   force =    -0.00047025   -0.00044686    0.00092572
     atom    6 type  1   force =     0.00014855    0.00002947    0.00050864
     atom    7 type  1   force =    -0.00047510   -0.00001787    0.00086447
     atom    8 type  1   force =    -0.00109109   -0.00063795    0.00106295
     atom    9 type  1   force =    -0.00116351    0.00066145    0.00099697
     atom   10 type  1   force =    -0.00100081   -0.00040392    0.00028533
     atom   11 type  1   force =    -0.00098855    0.00028293    0.00024706
     atom   12 type  1   force =    -0.00138618    0.00012899   -0.00008500
     atom   13 type  1   force =    -0.00088648   -0.00009076    0.00035621
     atom   14 type  1   force =     0.00016230   -0.00006348    0.00004978
     atom   15 type  1   force =     0.00013756    0.00014796    0.00007868
     atom   16 type  1   force =    -0.00010901   -0.00021995    0.00067618
     atom   17 type  1   force =    -0.00015993    0.00012176    0.00061984
     atom   18 type  1   force =     0.00040047    0.00008358   -0.00038986
     atom   19 type  1   force =     0.00109900   -0.00002912   -0.00695941
     atom   20 type  1   force =     0.00385074   -0.00013915   -0.00843187
     atom   21 type  1   force =     0.00386266    0.00016456   -0.00842596
     atom   22 type  1   force =    -0.00113426    0.00098687   -0.00951199
     atom   23 type  1   force =    -0.00113380   -0.00102686   -0.00952244
     atom   24 type  1   force =     0.00106772    0.00003628   -0.01194384
     atom   25 type  1   force =     0.00320532   -0.00003533   -0.01566783
     atom   26 type  1   force =     0.00374861   -0.00233222   -0.01463034
     atom   27 type  1   force =     0.00375531    0.00236598   -0.01462908
     atom   28 type  1   force =     0.00093459    0.00005827   -0.00909829
     atom   29 type  1   force =     0.00093335   -0.00009597   -0.00910005
     atom   30 type  1   force =     0.00153430    0.00003576   -0.00943752
     atom   31 type  1   force =    -0.00784937   -0.00003066    0.01297117
     atom   32 type  1   force =    -0.00792727   -0.00029804    0.01296838
     atom   33 type  1   force =    -0.00793447    0.00033191    0.01297724
     atom   34 type  1   force =     0.00364678    0.00018527    0.02783183
     atom   35 type  1   force =     0.00365192   -0.00021517    0.02782670
     atom   36 type  1   force =     0.00362757    0.00003117    0.02705998
     atom   37 type  2   force =     0.00088662    0.00000863    0.00159061

     Total force =     0.067630     Total SCF correction =     0.002146
 !ASE

     Writing output data file calc.save
 
     init_run     :     42.87s CPU     50.01s WALL (       1 calls)
     electrons    :  44953.64s CPU  52044.81s WALL (      15 calls)
     update_pot   :     61.89s CPU     65.70s WALL (      14 calls)
     forces       :    762.95s CPU    797.54s WALL (      15 calls)

     Called by init_run:
     wfcinit      :     27.91s CPU     33.91s WALL (       1 calls)
     potinit      :      1.65s CPU      1.83s WALL (       1 calls)

     Called by electrons:
     c_bands      :  30806.77s CPU  36269.36s WALL (     466 calls)
     sum_band     :   9591.93s CPU  10860.98s WALL (     466 calls)
     v_of_rho     :    287.16s CPU    336.92s WALL (     481 calls)
     newd         :   4309.92s CPU   4608.30s WALL (     481 calls)
     mix_rho      :     67.92s CPU     81.92s WALL (     466 calls)

     Called by c_bands:
     init_us_2    :    120.45s CPU    132.17s WALL (    9480 calls)
     cegterg      :  29978.21s CPU  35405.87s WALL (    4660 calls)

     Called by *egterg:
     h_psi        :  14936.06s CPU  19156.42s WALL (   17640 calls)
     s_psi        :   1987.59s CPU   2059.48s WALL (   17640 calls)
     g_psi        :     72.03s CPU     74.02s WALL (   12970 calls)
     cdiaghg      :   4566.29s CPU   4694.80s WALL (   17490 calls)

     Called by h_psi:
     add_vuspsi   :   2010.50s CPU   2086.90s WALL (   17640 calls)

     General routines
     calbec       :   3369.61s CPU   3468.15s WALL (   22450 calls)
     fft          :    308.87s CPU    360.99s WALL (   15046 calls)
     ffts         :      3.54s CPU      4.92s WALL (    1894 calls)
     fftw         :   7694.45s CPU  12646.24s WALL ( 6666104 calls)
     interpolate  :     37.61s CPU     51.32s WALL (    1894 calls)
     davcio       :      0.00s CPU      0.63s WALL (      10 calls)
 
     Parallel routines
     fft_scatter  :   4560.80s CPU   7423.66s WALL ( 6683044 calls)
 
     PWSCF        :    12h45m CPU       14h45m WALL

 
   This run was terminated on:   4:11: 7  21Apr2018            

=------------------------------------------------------------------------------=
   JOB DONE.
=------------------------------------------------------------------------------=
