  python dir          : /home/vossj/suncat/lib/python2.7/site-packages/espresso
  espresso dir        : /home/vossj/suncat/esdld/espresso-dynpy-beef/bin
  pseudo dir          : /home/alatimer/bin/psp/esp_psp_w_gbrvRu/
  ase-espresso py git : ffa2778-git



     Program PWSCF v.5.1rc2 (svn rev. ) starts on 20Apr2018 at 13:26: 2 

     This program is part of the open-source Quantum ESPRESSO suite
     for quantum simulation of materials; please cite
         "P. Giannozzi et al., J. Phys.:Condens. Matter 21 395502 (2009);
          URL http://www.quantum-espresso.org", 
     in publications or presentations arising from this work. More details at
     http://www.quantum-espresso.org/quote

     Parallel version (MPI), running on    16 processors
     R & G space division:  proc/nbgrp/npool/nimage =      16
     Reading input from pw.inp
     Message from routine read_cards :
     DEPRECATED: no units specified in CELL_PARAMETERS card

     Current dimensions of program PWSCF are:
     Max number of different atomic species (ntypx) = 10
     Max number of k-points (npk) =  40000
     Max angular momentum in pseudopotentials (lmaxx) =  3
     Presently no symmetry can be used with electric field


     IMPORTANT: XC functional enforced from input :
     Exchange-correlation      = RPBE ( 1  4 28  4 0)
     Any further DFT definition will be discarded
     Please, verify this is what you really want


     Subspace diagonalization in iterative solution of the eigenvalue problem:
     a serial algorithm will be used

     Found symmetry operation: I + (  0.0000  0.3333  0.0000)
     This is a supercell, fractional translations are disabled
 
     Parallelization info
     --------------------
     sticks:   dense  smooth     PW     G-vecs:    dense   smooth      PW
     Min         367     147     39               123943    31337    4337
     Max         368     148     40               123966    31384    4354
     Sum        5877    2361    631              1983193   501747   69475
 
     Generating pointlists ...
     new r_m :   0.4125 (alat units)  0.7795 (a.u.) for type    1


     bravais-lattice index     =            0
     lattice parameter (alat)  =       1.8897  a.u.
     unit-cell volume          =   12682.1321 (a.u.)^3
     number of atoms/cell      =           36
     number of atomic types    =            1
     number of electrons       =       324.00
     number of Kohn-Sham states=          262
     kinetic-energy cutoff     =      44.0992  Ry
     charge density cutoff     =     440.9919  Ry
     convergence threshold     =      7.3E-07
     mixing beta               =       0.1000
     number of iterations used =           10  plain     mixing
     Exchange-correlation      = RPBE ( 1  4 28  4 0)
     nstep                     =           50


     celldm(1)=   1.889726  celldm(2)=   0.000000  celldm(3)=   0.000000
     celldm(4)=   0.000000  celldm(5)=   0.000000  celldm(6)=   0.000000

     crystal axes: (cart. coord. in units of alat)
               a(1) = (   6.191574   0.000000   0.000000 )  
               a(2) = (   0.000000   7.583099   0.000000 )  
               a(3) = (   0.000000   0.000000  40.026524 )  

     reciprocal axes: (cart. coord. in units 2 pi/alat)
               b(1) = (  0.161510  0.000000  0.000000 )  
               b(2) = (  0.000000  0.131872  0.000000 )  
               b(3) = (  0.000000  0.000000  0.024983 )  


     PseudoPot. # 1 for Co read from file:
     /home/alatimer/bin/psp/esp_psp_w_gbrvRu/Co.UPF
     MD5 check sum: f36dda9fe147c5f42efc2a4f7ec0da3d
     Pseudo is Ultrasoft + core correction, Zval =  9.0
     Generated by new atomic code, or converted to UPF format
     Using radial grid of  937 points,  3 beta functions with: 
                l(1) =   1
                l(2) =   2
                l(3) =   2
     Q(r) pseudized with  8 coefficients,  rinner =    1.000   1.000   1.000
                                                       1.000   1.000

     atomic species   valence    mass     pseudopotential
        Co1            9.00    58.93320     Co( 1.00)

     Starting magnetic structure 
     atomic species   magnetization
        Co1          0.444

     No symmetry found



   Cartesian axes

     site n.     atom                  positions (alat units)
         1           Co1 tau(   1) = (   4.1277161   1.2638498  24.0265242  )
         2           Co1 tau(   2) = (   4.1277161   3.7915494  24.0265242  )
         3           Co1 tau(   3) = (   4.1277161   6.3192490  24.0265242  )
         4           Co1 tau(   4) = (   2.0638581   0.0000000  23.2968402  )
         5           Co1 tau(   5) = (   2.0638581   2.5276996  23.2968402  )
         6           Co1 tau(   6) = (   2.0638581   5.0553992  23.2968402  )
         7           Co1 tau(   7) = (   0.0000000   1.2638498  22.5671562  )
         8           Co1 tau(   8) = (   0.0000000   3.7915494  22.5671562  )
         9           Co1 tau(   9) = (   0.0000000   6.3192490  22.5671562  )
        10           Co1 tau(  10) = (   4.1277161   0.0000000  21.8374721  )
        11           Co1 tau(  11) = (   4.1277161   2.5276996  21.8374721  )
        12           Co1 tau(  12) = (   4.1277161   5.0553992  21.8374721  )
        13           Co1 tau(  13) = (   2.0638581   1.2638498  21.1077881  )
        14           Co1 tau(  14) = (   2.0638581   3.7915494  21.1077881  )
        15           Co1 tau(  15) = (   2.0638581   6.3192490  21.1077881  )
        16           Co1 tau(  16) = (   0.0000000   0.0000000  20.3781041  )
        17           Co1 tau(  17) = (   0.0000000   2.5276996  20.3781041  )
        18           Co1 tau(  18) = (   0.0000000   5.0553992  20.3781041  )
        19           Co1 tau(  19) = (   4.1277161   1.2638498  19.6484201  )
        20           Co1 tau(  20) = (   4.1277161   3.7915494  19.6484201  )
        21           Co1 tau(  21) = (   4.1277161   6.3192490  19.6484201  )
        22           Co1 tau(  22) = (   2.0638581   0.0000000  18.9187361  )
        23           Co1 tau(  23) = (   2.0638581   2.5276996  18.9187361  )
        24           Co1 tau(  24) = (   2.0638581   5.0553992  18.9187361  )
        25           Co1 tau(  25) = (   0.0000000   1.2638498  18.1890521  )
        26           Co1 tau(  26) = (   0.0000000   3.7915494  18.1890521  )
        27           Co1 tau(  27) = (   0.0000000   6.3192490  18.1890521  )
        28           Co1 tau(  28) = (   4.1277161   0.0000000  17.4593680  )
        29           Co1 tau(  29) = (   4.1277161   2.5276996  17.4593680  )
        30           Co1 tau(  30) = (   4.1277161   5.0553992  17.4593680  )
        31           Co1 tau(  31) = (   2.0638581   1.2638498  16.7296840  )
        32           Co1 tau(  32) = (   2.0638581   3.7915494  16.7296840  )
        33           Co1 tau(  33) = (   2.0638581   6.3192490  16.7296840  )
        34           Co1 tau(  34) = (   0.0000000   0.0000000  16.0000000  )
        35           Co1 tau(  35) = (   0.0000000   2.5276996  16.0000000  )
        36           Co1 tau(  36) = (   0.0000000   5.0553992  16.0000000  )

     number of k points=    10  Fermi-Dirac smearing, width (Ry)=  0.0073
                       cart. coord. in units 2pi/alat
        k(    1) = (   0.0000000   0.0000000   0.0000000), wk =   0.1111111
        k(    2) = (   0.0000000   0.0439574   0.0000000), wk =   0.2222222
        k(    3) = (   0.0538366   0.0000000   0.0000000), wk =   0.2222222
        k(    4) = (   0.0538366   0.0439574   0.0000000), wk =   0.2222222
        k(    5) = (   0.0538366  -0.0439574   0.0000000), wk =   0.2222222
        k(    6) = (   0.0000000   0.0000000   0.0000000), wk =   0.1111111
        k(    7) = (   0.0000000   0.0439574   0.0000000), wk =   0.2222222
        k(    8) = (   0.0538366   0.0000000   0.0000000), wk =   0.2222222
        k(    9) = (   0.0538366   0.0439574   0.0000000), wk =   0.2222222
        k(   10) = (   0.0538366  -0.0439574   0.0000000), wk =   0.2222222

     Dense  grid:  1983193 G-vectors     FFT dimensions: (  80,  96, 512)

     Smooth grid:   501747 G-vectors     FFT dimensions: (  50,  64, 320)

     Largest allocated arrays     est. size (Mb)     dimensions
        Kohn-Sham Wavefunctions        15.82 Mb     (    3956,  262)
        NL pseudopotentials            28.25 Mb     (    3956,  468)
        Each V/rho on FFT grid          7.50 Mb     (  245760,   2)
        Each G-vector array             0.95 Mb     (  123962)
        G-vector shells                 0.41 Mb     (   54356)
     Largest temporary arrays     est. size (Mb)     dimensions
        Auxiliary wavefunctions        63.26 Mb     (    3956, 1048)
        Each subspace H/S matrix       16.76 Mb     (    1048, 1048)
        Each <psi_i|beta_j> matrix      1.87 Mb     (     468,  262)
        Arrays for rho mixing          37.50 Mb     (  245760,   10)

     Initial potential from superposition of free atoms
     Check: negative starting charge=(component1):   -0.004327
     Check: negative starting charge=(component2):   -0.001664

     starting charge  323.99032, renormalised to  324.00000

     negative rho (up, down):  4.327E-03 1.664E-03
 
     Adding external electric field

     Computed dipole along edir(3) : 
        Dipole               -0.0000 Ry au,         -0.0000 Debye
        Dipole field         -0.0000 Ry au
 
        Potential amp.        0.0000 Ry
        Total length         73.7482 bohr
 
 
     Adding external electric field

     Computed dipole along edir(3) : 
        Dipole               -0.0000 Ry au,         -0.0000 Debye
        Dipole field         -0.0000 Ry au
 
        Potential amp.        0.0000 Ry
        Total length         73.7482 bohr
 
     Starting wfc are  324 randomized atomic wfcs

     total cpu time spent up to now is       46.0 secs

     Self-consistent Calculation

     iteration #  1     ecut=    44.10 Ry     beta=0.10
     Davidson diagonalization with overlap
     ethr =  1.00E-02,  avg # of iterations =  8.4

     negative rho (up, down):  4.218E-03 1.871E-03
 
     Adding external electric field

     Computed dipole along edir(3) : 
        Dipole               -0.0003 Ry au,         -0.0008 Debye
        Dipole field         -0.0000 Ry au
 
        Potential amp.        0.0000 Ry
        Total length         73.7482 bohr
 
 
     Adding external electric field

     Computed dipole along edir(3) : 
        Dipole               -0.0003 Ry au,         -0.0008 Debye
        Dipole field         -0.0000 Ry au
 
        Potential amp.        0.0000 Ry
        Total length         73.7482 bohr
 
 
     Magnetic moment per site:
     atom:    1    charge:    3.1746    magn:    1.4229    constr:    0.0000
     atom:    2    charge:    3.1746    magn:    1.4229    constr:    0.0000
     atom:    3    charge:    3.1746    magn:    1.4229    constr:    0.0000
     atom:    4    charge:    3.2031    magn:    1.3954    constr:    0.0000
     atom:    5    charge:    3.2031    magn:    1.3954    constr:    0.0000
     atom:    6    charge:    3.2031    magn:    1.3954    constr:    0.0000
     atom:    7    charge:    3.2164    magn:    1.3814    constr:    0.0000
     atom:    8    charge:    3.2165    magn:    1.3814    constr:    0.0000
     atom:    9    charge:    3.2165    magn:    1.3815    constr:    0.0000
     atom:   10    charge:    3.2302    magn:    1.3680    constr:    0.0000
     atom:   11    charge:    3.2302    magn:    1.3680    constr:    0.0000
     atom:   12    charge:    3.2302    magn:    1.3680    constr:    0.0000
     atom:   13    charge:    3.2306    magn:    1.3690    constr:    0.0000
     atom:   14    charge:    3.2306    magn:    1.3690    constr:    0.0000
     atom:   15    charge:    3.2306    magn:    1.3690    constr:    0.0000
     atom:   16    charge:    3.2305    magn:    1.3686    constr:    0.0000
     atom:   17    charge:    3.2305    magn:    1.3686    constr:    0.0000
     atom:   18    charge:    3.2305    magn:    1.3686    constr:    0.0000
     atom:   19    charge:    3.2302    magn:    1.3684    constr:    0.0000
     atom:   20    charge:    3.2302    magn:    1.3684    constr:    0.0000
     atom:   21    charge:    3.2302    magn:    1.3684    constr:    0.0000
     atom:   22    charge:    3.2306    magn:    1.3690    constr:    0.0000
     atom:   23    charge:    3.2306    magn:    1.3690    constr:    0.0000
     atom:   24    charge:    3.2306    magn:    1.3690    constr:    0.0000
     atom:   25    charge:    3.2305    magn:    1.3682    constr:    0.0000
     atom:   26    charge:    3.2305    magn:    1.3682    constr:    0.0000
     atom:   27    charge:    3.2305    magn:    1.3682    constr:    0.0000
     atom:   28    charge:    3.2161    magn:    1.3813    constr:    0.0000
     atom:   29    charge:    3.2161    magn:    1.3813    constr:    0.0000
     atom:   30    charge:    3.2162    magn:    1.3813    constr:    0.0000
     atom:   31    charge:    3.2031    magn:    1.3954    constr:    0.0000
     atom:   32    charge:    3.2031    magn:    1.3954    constr:    0.0000
     atom:   33    charge:    3.2031    magn:    1.3954    constr:    0.0000
     atom:   34    charge:    3.1748    magn:    1.4230    constr:    0.0000
     atom:   35    charge:    3.1748    magn:    1.4230    constr:    0.0000
     atom:   36    charge:    3.1748    magn:    1.4230    constr:    0.0000

     total cpu time spent up to now is      199.2 secs

     total energy              =   -2879.91699546 Ry
     Harris-Foulkes estimate   =   -2883.60665723 Ry
     estimated scf accuracy    <      23.89731936 Ry

     total magnetization       =    74.54 Bohr mag/cell
     absolute magnetization    =    74.57 Bohr mag/cell

     iteration #  2     ecut=    44.10 Ry     beta=0.10
     Davidson diagonalization with overlap
     ethr =  7.38E-03,  avg # of iterations =  3.5

     negative rho (up, down):  5.292E-03 3.069E-03
 
     Adding external electric field

     Computed dipole along edir(3) : 
        Dipole               -0.0001 Ry au,         -0.0002 Debye
        Dipole field         -0.0000 Ry au
 
        Potential amp.        0.0000 Ry
        Total length         73.7482 bohr
 
 
     Adding external electric field

     Computed dipole along edir(3) : 
        Dipole               -0.0001 Ry au,         -0.0002 Debye
        Dipole field         -0.0000 Ry au
 
        Potential amp.        0.0000 Ry
        Total length         73.7482 bohr
 
 
     Magnetic moment per site:
     atom:    1    charge:    3.2032    magn:    1.3935    constr:    0.0000
     atom:    2    charge:    3.2032    magn:    1.3935    constr:    0.0000
     atom:    3    charge:    3.2032    magn:    1.3935    constr:    0.0000
     atom:    4    charge:    3.2237    magn:    1.3701    constr:    0.0000
     atom:    5    charge:    3.2237    magn:    1.3701    constr:    0.0000
     atom:    6    charge:    3.2237    magn:    1.3701    constr:    0.0000
     atom:    7    charge:    3.2249    magn:    1.3647    constr:    0.0000
     atom:    8    charge:    3.2249    magn:    1.3647    constr:    0.0000
     atom:    9    charge:    3.2249    magn:    1.3647    constr:    0.0000
     atom:   10    charge:    3.2177    magn:    1.3669    constr:    0.0000
     atom:   11    charge:    3.2177    magn:    1.3669    constr:    0.0000
     atom:   12    charge:    3.2177    magn:    1.3669    constr:    0.0000
     atom:   13    charge:    3.2091    magn:    1.3719    constr:    0.0000
     atom:   14    charge:    3.2091    magn:    1.3719    constr:    0.0000
     atom:   15    charge:    3.2091    magn:    1.3719    constr:    0.0000
     atom:   16    charge:    3.2042    magn:    1.3714    constr:    0.0000
     atom:   17    charge:    3.2042    magn:    1.3714    constr:    0.0000
     atom:   18    charge:    3.2042    magn:    1.3714    constr:    0.0000
     atom:   19    charge:    3.2039    magn:    1.3713    constr:    0.0000
     atom:   20    charge:    3.2039    magn:    1.3713    constr:    0.0000
     atom:   21    charge:    3.2039    magn:    1.3713    constr:    0.0000
     atom:   22    charge:    3.2091    magn:    1.3719    constr:    0.0000
     atom:   23    charge:    3.2091    magn:    1.3719    constr:    0.0000
     atom:   24    charge:    3.2091    magn:    1.3719    constr:    0.0000
     atom:   25    charge:    3.2180    magn:    1.3670    constr:    0.0000
     atom:   26    charge:    3.2180    magn:    1.3670    constr:    0.0000
     atom:   27    charge:    3.2180    magn:    1.3670    constr:    0.0000
     atom:   28    charge:    3.2246    magn:    1.3646    constr:    0.0000
     atom:   29    charge:    3.2246    magn:    1.3646    constr:    0.0000
     atom:   30    charge:    3.2246    magn:    1.3646    constr:    0.0000
     atom:   31    charge:    3.2237    magn:    1.3701    constr:    0.0000
     atom:   32    charge:    3.2237    magn:    1.3701    constr:    0.0000
     atom:   33    charge:    3.2237    magn:    1.3701    constr:    0.0000
     atom:   34    charge:    3.2034    magn:    1.3936    constr:    0.0000
     atom:   35    charge:    3.2034    magn:    1.3936    constr:    0.0000
     atom:   36    charge:    3.2034    magn:    1.3936    constr:    0.0000

     total cpu time spent up to now is      303.1 secs

     total energy              =   -2879.58589804 Ry
     Harris-Foulkes estimate   =   -2889.74662022 Ry
     estimated scf accuracy    <     239.22644511 Ry

     total magnetization       =    72.33 Bohr mag/cell
     absolute magnetization    =    72.36 Bohr mag/cell

     iteration #  3     ecut=    44.10 Ry     beta=0.10
     Davidson diagonalization with overlap
     ethr =  7.38E-03,  avg # of iterations =  1.1

     negative rho (up, down):  7.291E-03 4.745E-03
 
     Adding external electric field

     Computed dipole along edir(3) : 
        Dipole               -0.0011 Ry au,         -0.0027 Debye
        Dipole field         -0.0000 Ry au
 
        Potential amp.        0.0002 Ry
        Total length         73.7482 bohr
 
 
     Adding external electric field

     Computed dipole along edir(3) : 
        Dipole               -0.0011 Ry au,         -0.0027 Debye
        Dipole field         -0.0000 Ry au
 
        Potential amp.        0.0002 Ry
        Total length         73.7482 bohr
 
 
     Magnetic moment per site:
     atom:    1    charge:    3.2192    magn:    1.3724    constr:    0.0000
     atom:    2    charge:    3.2192    magn:    1.3724    constr:    0.0000
     atom:    3    charge:    3.2192    magn:    1.3724    constr:    0.0000
     atom:    4    charge:    3.2175    magn:    1.3663    constr:    0.0000
     atom:    5    charge:    3.2175    magn:    1.3663    constr:    0.0000
     atom:    6    charge:    3.2175    magn:    1.3663    constr:    0.0000
     atom:    7    charge:    3.2151    magn:    1.3629    constr:    0.0000
     atom:    8    charge:    3.2151    magn:    1.3629    constr:    0.0000
     atom:    9    charge:    3.2152    magn:    1.3629    constr:    0.0000
     atom:   10    charge:    3.2131    magn:    1.3605    constr:    0.0000
     atom:   11    charge:    3.2131    magn:    1.3605    constr:    0.0000
     atom:   12    charge:    3.2131    magn:    1.3605    constr:    0.0000
     atom:   13    charge:    3.2097    magn:    1.3620    constr:    0.0000
     atom:   14    charge:    3.2098    magn:    1.3620    constr:    0.0000
     atom:   15    charge:    3.2097    magn:    1.3621    constr:    0.0000
     atom:   16    charge:    3.2083    magn:    1.3593    constr:    0.0000
     atom:   17    charge:    3.2083    magn:    1.3593    constr:    0.0000
     atom:   18    charge:    3.2083    magn:    1.3593    constr:    0.0000
     atom:   19    charge:    3.2080    magn:    1.3592    constr:    0.0000
     atom:   20    charge:    3.2080    magn:    1.3592    constr:    0.0000
     atom:   21    charge:    3.2080    magn:    1.3592    constr:    0.0000
     atom:   22    charge:    3.2097    magn:    1.3621    constr:    0.0000
     atom:   23    charge:    3.2097    magn:    1.3621    constr:    0.0000
     atom:   24    charge:    3.2097    magn:    1.3621    constr:    0.0000
     atom:   25    charge:    3.2133    magn:    1.3606    constr:    0.0000
     atom:   26    charge:    3.2133    magn:    1.3606    constr:    0.0000
     atom:   27    charge:    3.2133    magn:    1.3606    constr:    0.0000
     atom:   28    charge:    3.2148    magn:    1.3628    constr:    0.0000
     atom:   29    charge:    3.2148    magn:    1.3628    constr:    0.0000
     atom:   30    charge:    3.2148    magn:    1.3628    constr:    0.0000
     atom:   31    charge:    3.2175    magn:    1.3663    constr:    0.0000
     atom:   32    charge:    3.2175    magn:    1.3663    constr:    0.0000
     atom:   33    charge:    3.2175    magn:    1.3663    constr:    0.0000
     atom:   34    charge:    3.2195    magn:    1.3725    constr:    0.0000
     atom:   35    charge:    3.2195    magn:    1.3725    constr:    0.0000
     atom:   36    charge:    3.2195    magn:    1.3725    constr:    0.0000

     total cpu time spent up to now is      394.7 secs

     total energy              =   -2883.28906846 Ry
     Harris-Foulkes estimate   =   -2883.76958864 Ry
     estimated scf accuracy    <      13.92199902 Ry

     total magnetization       =    74.76 Bohr mag/cell
     absolute magnetization    =    74.79 Bohr mag/cell

     iteration #  4     ecut=    44.10 Ry     beta=0.10
     Davidson diagonalization with overlap
     ethr =  4.30E-03,  avg # of iterations =  1.0

     negative rho (up, down):  4.578E-03 3.874E-03
 
     Adding external electric field

     Computed dipole along edir(3) : 
        Dipole                0.0352 Ry au,          0.0893 Debye
        Dipole field          0.0000 Ry au
 
        Potential amp.       -0.0051 Ry
        Total length         73.7482 bohr
 
 
     Adding external electric field

     Computed dipole along edir(3) : 
        Dipole                0.0352 Ry au,          0.0893 Debye
        Dipole field          0.0000 Ry au
 
        Potential amp.       -0.0051 Ry
        Total length         73.7482 bohr
 
 
     Magnetic moment per site:
     atom:    1    charge:    3.2406    magn:    1.2940    constr:    0.0000
     atom:    2    charge:    3.2406    magn:    1.2940    constr:    0.0000
     atom:    3    charge:    3.2406    magn:    1.2940    constr:    0.0000
     atom:    4    charge:    3.2226    magn:    1.2968    constr:    0.0000
     atom:    5    charge:    3.2226    magn:    1.2968    constr:    0.0000
     atom:    6    charge:    3.2226    magn:    1.2968    constr:    0.0000
     atom:    7    charge:    3.2077    magn:    1.2993    constr:    0.0000
     atom:    8    charge:    3.2077    magn:    1.2993    constr:    0.0000
     atom:    9    charge:    3.2076    magn:    1.2993    constr:    0.0000
     atom:   10    charge:    3.1917    magn:    1.3025    constr:    0.0000
     atom:   11    charge:    3.1917    magn:    1.3025    constr:    0.0000
     atom:   12    charge:    3.1917    magn:    1.3025    constr:    0.0000
     atom:   13    charge:    3.2010    magn:    1.2964    constr:    0.0000
     atom:   14    charge:    3.2010    magn:    1.2964    constr:    0.0000
     atom:   15    charge:    3.2010    magn:    1.2964    constr:    0.0000
     atom:   16    charge:    3.2022    magn:    1.2941    constr:    0.0000
     atom:   17    charge:    3.2022    magn:    1.2941    constr:    0.0000
     atom:   18    charge:    3.2022    magn:    1.2941    constr:    0.0000
     atom:   19    charge:    3.2020    magn:    1.2939    constr:    0.0000
     atom:   20    charge:    3.2020    magn:    1.2939    constr:    0.0000
     atom:   21    charge:    3.2020    magn:    1.2939    constr:    0.0000
     atom:   22    charge:    3.2010    magn:    1.2964    constr:    0.0000
     atom:   23    charge:    3.2010    magn:    1.2964    constr:    0.0000
     atom:   24    charge:    3.2010    magn:    1.2964    constr:    0.0000
     atom:   25    charge:    3.1921    magn:    1.3025    constr:    0.0000
     atom:   26    charge:    3.1921    magn:    1.3025    constr:    0.0000
     atom:   27    charge:    3.1921    magn:    1.3025    constr:    0.0000
     atom:   28    charge:    3.2075    magn:    1.2990    constr:    0.0000
     atom:   29    charge:    3.2075    magn:    1.2990    constr:    0.0000
     atom:   30    charge:    3.2075    magn:    1.2991    constr:    0.0000
     atom:   31    charge:    3.2228    magn:    1.2966    constr:    0.0000
     atom:   32    charge:    3.2228    magn:    1.2966    constr:    0.0000
     atom:   33    charge:    3.2228    magn:    1.2966    constr:    0.0000
     atom:   34    charge:    3.2412    magn:    1.2938    constr:    0.0000
     atom:   35    charge:    3.2412    magn:    1.2938    constr:    0.0000
     atom:   36    charge:    3.2412    magn:    1.2938    constr:    0.0000

     total cpu time spent up to now is      486.1 secs

     total energy              =   -2883.72422175 Ry
     Harris-Foulkes estimate   =   -2883.50881012 Ry
     estimated scf accuracy    <       2.52178726 Ry

     total magnetization       =    74.97 Bohr mag/cell
     absolute magnetization    =    75.01 Bohr mag/cell

     iteration #  5     ecut=    44.10 Ry     beta=0.10
     Davidson diagonalization with overlap
     ethr =  7.78E-04,  avg # of iterations =  9.6

     negative rho (up, down):  4.352E-03 4.068E-03
 
     Adding external electric field

     Computed dipole along edir(3) : 
        Dipole               -0.2987 Ry au,         -0.7593 Debye
        Dipole field         -0.0003 Ry au
 
        Potential amp.        0.0437 Ry
        Total length         73.7482 bohr
 
 
     Adding external electric field

     Computed dipole along edir(3) : 
        Dipole               -0.2987 Ry au,         -0.7593 Debye
        Dipole field         -0.0003 Ry au
 
        Potential amp.        0.0437 Ry
        Total length         73.7482 bohr
 
 
     Magnetic moment per site:
     atom:    1    charge:    3.2455    magn:    1.2573    constr:    0.0000
     atom:    2    charge:    3.2455    magn:    1.2573    constr:    0.0000
     atom:    3    charge:    3.2455    magn:    1.2573    constr:    0.0000
     atom:    4    charge:    3.2183    magn:    1.2654    constr:    0.0000
     atom:    5    charge:    3.2183    magn:    1.2654    constr:    0.0000
     atom:    6    charge:    3.2183    magn:    1.2654    constr:    0.0000
     atom:    7    charge:    3.2089    magn:    1.2620    constr:    0.0000
     atom:    8    charge:    3.2089    magn:    1.2620    constr:    0.0000
     atom:    9    charge:    3.2089    magn:    1.2620    constr:    0.0000
     atom:   10    charge:    3.1947    magn:    1.2629    constr:    0.0000
     atom:   11    charge:    3.1947    magn:    1.2629    constr:    0.0000
     atom:   12    charge:    3.1947    magn:    1.2629    constr:    0.0000
     atom:   13    charge:    3.1953    magn:    1.2636    constr:    0.0000
     atom:   14    charge:    3.1953    magn:    1.2636    constr:    0.0000
     atom:   15    charge:    3.1953    magn:    1.2636    constr:    0.0000
     atom:   16    charge:    3.1978    magn:    1.2604    constr:    0.0000
     atom:   17    charge:    3.1978    magn:    1.2604    constr:    0.0000
     atom:   18    charge:    3.1978    magn:    1.2604    constr:    0.0000
     atom:   19    charge:    3.1973    magn:    1.2604    constr:    0.0000
     atom:   20    charge:    3.1973    magn:    1.2604    constr:    0.0000
     atom:   21    charge:    3.1973    magn:    1.2604    constr:    0.0000
     atom:   22    charge:    3.1948    magn:    1.2640    constr:    0.0000
     atom:   23    charge:    3.1948    magn:    1.2640    constr:    0.0000
     atom:   24    charge:    3.1948    magn:    1.2640    constr:    0.0000
     atom:   25    charge:    3.1942    magn:    1.2637    constr:    0.0000
     atom:   26    charge:    3.1942    magn:    1.2637    constr:    0.0000
     atom:   27    charge:    3.1942    magn:    1.2637    constr:    0.0000
     atom:   28    charge:    3.2073    magn:    1.2630    constr:    0.0000
     atom:   29    charge:    3.2073    magn:    1.2630    constr:    0.0000
     atom:   30    charge:    3.2073    magn:    1.2630    constr:    0.0000
     atom:   31    charge:    3.2168    magn:    1.2667    constr:    0.0000
     atom:   32    charge:    3.2168    magn:    1.2667    constr:    0.0000
     atom:   33    charge:    3.2168    magn:    1.2667    constr:    0.0000
     atom:   34    charge:    3.2435    magn:    1.2594    constr:    0.0000
     atom:   35    charge:    3.2435    magn:    1.2594    constr:    0.0000
     atom:   36    charge:    3.2435    magn:    1.2594    constr:    0.0000

     total cpu time spent up to now is      624.8 secs

     total energy              =   -2884.09534254 Ry
     Harris-Foulkes estimate   =   -2883.98674878 Ry
     estimated scf accuracy    <       5.08199862 Ry

     total magnetization       =    74.13 Bohr mag/cell
     absolute magnetization    =    74.25 Bohr mag/cell

     iteration #  6     ecut=    44.10 Ry     beta=0.10
     Davidson diagonalization with overlap
     ethr =  7.78E-04,  avg # of iterations =  1.5

     negative rho (up, down):  5.205E-03 4.753E-03
 
     Adding external electric field

     Computed dipole along edir(3) : 
        Dipole                0.0658 Ry au,          0.1673 Debye
        Dipole field          0.0001 Ry au
 
        Potential amp.       -0.0096 Ry
        Total length         73.7482 bohr
 
 
     Adding external electric field

     Computed dipole along edir(3) : 
        Dipole                0.0658 Ry au,          0.1673 Debye
        Dipole field          0.0001 Ry au
 
        Potential amp.       -0.0096 Ry
        Total length         73.7482 bohr
 
 
     Magnetic moment per site:
     atom:    1    charge:    3.2437    magn:    1.2530    constr:    0.0000
     atom:    2    charge:    3.2437    magn:    1.2530    constr:    0.0000
     atom:    3    charge:    3.2437    magn:    1.2530    constr:    0.0000
     atom:    4    charge:    3.2166    magn:    1.2607    constr:    0.0000
     atom:    5    charge:    3.2166    magn:    1.2607    constr:    0.0000
     atom:    6    charge:    3.2166    magn:    1.2607    constr:    0.0000
     atom:    7    charge:    3.2081    magn:    1.2563    constr:    0.0000
     atom:    8    charge:    3.2081    magn:    1.2563    constr:    0.0000
     atom:    9    charge:    3.2081    magn:    1.2563    constr:    0.0000
     atom:   10    charge:    3.1949    magn:    1.2564    constr:    0.0000
     atom:   11    charge:    3.1949    magn:    1.2564    constr:    0.0000
     atom:   12    charge:    3.1949    magn:    1.2564    constr:    0.0000
     atom:   13    charge:    3.1945    magn:    1.2578    constr:    0.0000
     atom:   14    charge:    3.1945    magn:    1.2578    constr:    0.0000
     atom:   15    charge:    3.1945    magn:    1.2578    constr:    0.0000
     atom:   16    charge:    3.1971    magn:    1.2545    constr:    0.0000
     atom:   17    charge:    3.1971    magn:    1.2545    constr:    0.0000
     atom:   18    charge:    3.1971    magn:    1.2545    constr:    0.0000
     atom:   19    charge:    3.1969    magn:    1.2543    constr:    0.0000
     atom:   20    charge:    3.1969    magn:    1.2543    constr:    0.0000
     atom:   21    charge:    3.1969    magn:    1.2543    constr:    0.0000
     atom:   22    charge:    3.1947    magn:    1.2577    constr:    0.0000
     atom:   23    charge:    3.1947    magn:    1.2577    constr:    0.0000
     atom:   24    charge:    3.1947    magn:    1.2577    constr:    0.0000
     atom:   25    charge:    3.1954    magn:    1.2564    constr:    0.0000
     atom:   26    charge:    3.1954    magn:    1.2564    constr:    0.0000
     atom:   27    charge:    3.1954    magn:    1.2564    constr:    0.0000
     atom:   28    charge:    3.2081    magn:    1.2560    constr:    0.0000
     atom:   29    charge:    3.2081    magn:    1.2560    constr:    0.0000
     atom:   30    charge:    3.2081    magn:    1.2560    constr:    0.0000
     atom:   31    charge:    3.2170    magn:    1.2603    constr:    0.0000
     atom:   32    charge:    3.2170    magn:    1.2603    constr:    0.0000
     atom:   33    charge:    3.2170    magn:    1.2603    constr:    0.0000
     atom:   34    charge:    3.2445    magn:    1.2527    constr:    0.0000
     atom:   35    charge:    3.2445    magn:    1.2526    constr:    0.0000
     atom:   36    charge:    3.2445    magn:    1.2526    constr:    0.0000

     total cpu time spent up to now is      717.8 secs

     total energy              =   -2884.07099598 Ry
     Harris-Foulkes estimate   =   -2884.27006903 Ry
     estimated scf accuracy    <      21.88664052 Ry

     total magnetization       =    73.18 Bohr mag/cell
     absolute magnetization    =    73.44 Bohr mag/cell

     iteration #  7     ecut=    44.10 Ry     beta=0.10
     Davidson diagonalization with overlap
     ethr =  7.78E-04,  avg # of iterations =  1.0

     negative rho (up, down):  5.495E-03 5.462E-03
 
     Adding external electric field

     Computed dipole along edir(3) : 
        Dipole                0.0001 Ry au,          0.0002 Debye
        Dipole field          0.0000 Ry au
 
        Potential amp.       -0.0000 Ry
        Total length         73.7482 bohr
 
 
     Adding external electric field

     Computed dipole along edir(3) : 
        Dipole                0.0001 Ry au,          0.0002 Debye
        Dipole field          0.0000 Ry au
 
        Potential amp.       -0.0000 Ry
        Total length         73.7482 bohr
 
 
     Magnetic moment per site:
     atom:    1    charge:    3.2344    magn:    1.2403    constr:    0.0000
     atom:    2    charge:    3.2344    magn:    1.2403    constr:    0.0000
     atom:    3    charge:    3.2344    magn:    1.2403    constr:    0.0000
     atom:    4    charge:    3.2163    magn:    1.2413    constr:    0.0000
     atom:    5    charge:    3.2163    magn:    1.2413    constr:    0.0000
     atom:    6    charge:    3.2163    magn:    1.2413    constr:    0.0000
     atom:    7    charge:    3.2068    magn:    1.2375    constr:    0.0000
     atom:    8    charge:    3.2068    magn:    1.2375    constr:    0.0000
     atom:    9    charge:    3.2068    magn:    1.2375    constr:    0.0000
     atom:   10    charge:    3.1971    magn:    1.2360    constr:    0.0000
     atom:   11    charge:    3.1971    magn:    1.2360    constr:    0.0000
     atom:   12    charge:    3.1971    magn:    1.2360    constr:    0.0000
     atom:   13    charge:    3.1976    magn:    1.2362    constr:    0.0000
     atom:   14    charge:    3.1976    magn:    1.2362    constr:    0.0000
     atom:   15    charge:    3.1976    magn:    1.2363    constr:    0.0000
     atom:   16    charge:    3.1969    magn:    1.2347    constr:    0.0000
     atom:   17    charge:    3.1969    magn:    1.2347    constr:    0.0000
     atom:   18    charge:    3.1969    magn:    1.2347    constr:    0.0000
     atom:   19    charge:    3.1965    magn:    1.2346    constr:    0.0000
     atom:   20    charge:    3.1965    magn:    1.2346    constr:    0.0000
     atom:   21    charge:    3.1965    magn:    1.2346    constr:    0.0000
     atom:   22    charge:    3.1976    magn:    1.2362    constr:    0.0000
     atom:   23    charge:    3.1976    magn:    1.2362    constr:    0.0000
     atom:   24    charge:    3.1976    magn:    1.2363    constr:    0.0000
     atom:   25    charge:    3.1973    magn:    1.2361    constr:    0.0000
     atom:   26    charge:    3.1973    magn:    1.2362    constr:    0.0000
     atom:   27    charge:    3.1973    magn:    1.2362    constr:    0.0000
     atom:   28    charge:    3.2065    magn:    1.2373    constr:    0.0000
     atom:   29    charge:    3.2065    magn:    1.2373    constr:    0.0000
     atom:   30    charge:    3.2065    magn:    1.2373    constr:    0.0000
     atom:   31    charge:    3.2162    magn:    1.2412    constr:    0.0000
     atom:   32    charge:    3.2162    magn:    1.2412    constr:    0.0000
     atom:   33    charge:    3.2162    magn:    1.2412    constr:    0.0000
     atom:   34    charge:    3.2347    magn:    1.2405    constr:    0.0000
     atom:   35    charge:    3.2347    magn:    1.2404    constr:    0.0000
     atom:   36    charge:    3.2347    magn:    1.2405    constr:    0.0000

     total cpu time spent up to now is      809.3 secs

     total energy              =   -2884.23191843 Ry
     Harris-Foulkes estimate   =   -2884.21371216 Ry
     estimated scf accuracy    <       3.38825210 Ry

     total magnetization       =    73.00 Bohr mag/cell
     absolute magnetization    =    73.32 Bohr mag/cell

     iteration #  8     ecut=    44.10 Ry     beta=0.10
     Davidson diagonalization with overlap
     ethr =  7.78E-04,  avg # of iterations =  1.0

     negative rho (up, down):  4.604E-03 5.896E-03
 
     Adding external electric field

     Computed dipole along edir(3) : 
        Dipole               -0.0009 Ry au,         -0.0024 Debye
        Dipole field         -0.0000 Ry au
 
        Potential amp.        0.0001 Ry
        Total length         73.7482 bohr
 
 
     Adding external electric field

     Computed dipole along edir(3) : 
        Dipole               -0.0009 Ry au,         -0.0024 Debye
        Dipole field         -0.0000 Ry au
 
        Potential amp.        0.0001 Ry
        Total length         73.7482 bohr
 
 
     Magnetic moment per site:
     atom:    1    charge:    3.2263    magn:    1.2063    constr:    0.0000
     atom:    2    charge:    3.2263    magn:    1.2063    constr:    0.0000
     atom:    3    charge:    3.2263    magn:    1.2063    constr:    0.0000
     atom:    4    charge:    3.2101    magn:    1.2072    constr:    0.0000
     atom:    5    charge:    3.2101    magn:    1.2071    constr:    0.0000
     atom:    6    charge:    3.2101    magn:    1.2071    constr:    0.0000
     atom:    7    charge:    3.2065    magn:    1.1984    constr:    0.0000
     atom:    8    charge:    3.2065    magn:    1.1984    constr:    0.0000
     atom:    9    charge:    3.2065    magn:    1.1984    constr:    0.0000
     atom:   10    charge:    3.1955    magn:    1.1991    constr:    0.0000
     atom:   11    charge:    3.1955    magn:    1.1991    constr:    0.0000
     atom:   12    charge:    3.1955    magn:    1.1991    constr:    0.0000
     atom:   13    charge:    3.1969    magn:    1.1987    constr:    0.0000
     atom:   14    charge:    3.1969    magn:    1.1987    constr:    0.0000
     atom:   15    charge:    3.1969    magn:    1.1987    constr:    0.0000
     atom:   16    charge:    3.1997    magn:    1.1946    constr:    0.0000
     atom:   17    charge:    3.1997    magn:    1.1946    constr:    0.0000
     atom:   18    charge:    3.1997    magn:    1.1946    constr:    0.0000
     atom:   19    charge:    3.1995    magn:    1.1944    constr:    0.0000
     atom:   20    charge:    3.1995    magn:    1.1944    constr:    0.0000
     atom:   21    charge:    3.1995    magn:    1.1944    constr:    0.0000
     atom:   22    charge:    3.1969    magn:    1.1988    constr:    0.0000
     atom:   23    charge:    3.1969    magn:    1.1988    constr:    0.0000
     atom:   24    charge:    3.1969    magn:    1.1988    constr:    0.0000
     atom:   25    charge:    3.1958    magn:    1.1991    constr:    0.0000
     atom:   26    charge:    3.1958    magn:    1.1991    constr:    0.0000
     atom:   27    charge:    3.1958    magn:    1.1991    constr:    0.0000
     atom:   28    charge:    3.2062    magn:    1.1983    constr:    0.0000
     atom:   29    charge:    3.2062    magn:    1.1983    constr:    0.0000
     atom:   30    charge:    3.2062    magn:    1.1983    constr:    0.0000
     atom:   31    charge:    3.2101    magn:    1.2070    constr:    0.0000
     atom:   32    charge:    3.2101    magn:    1.2070    constr:    0.0000
     atom:   33    charge:    3.2101    magn:    1.2071    constr:    0.0000
     atom:   34    charge:    3.2265    magn:    1.2065    constr:    0.0000
     atom:   35    charge:    3.2265    magn:    1.2065    constr:    0.0000
     atom:   36    charge:    3.2265    magn:    1.2065    constr:    0.0000

     total cpu time spent up to now is      901.0 secs

     total energy              =   -2884.47950768 Ry
     Harris-Foulkes estimate   =   -2884.28263556 Ry
     estimated scf accuracy    <       0.55162967 Ry

     total magnetization       =    71.91 Bohr mag/cell
     absolute magnetization    =    72.38 Bohr mag/cell

     iteration #  9     ecut=    44.10 Ry     beta=0.10
     Davidson diagonalization with overlap
     ethr =  1.70E-04,  avg # of iterations =  5.3

     negative rho (up, down):  1.388E-02 1.313E-02
 
     Adding external electric field

     Computed dipole along edir(3) : 
        Dipole                0.0014 Ry au,          0.0035 Debye
        Dipole field          0.0000 Ry au
 
        Potential amp.       -0.0002 Ry
        Total length         73.7482 bohr
 
 
     Adding external electric field

     Computed dipole along edir(3) : 
        Dipole                0.0014 Ry au,          0.0035 Debye
        Dipole field          0.0000 Ry au
 
        Potential amp.       -0.0002 Ry
        Total length         73.7482 bohr
 
 
     Magnetic moment per site:
     atom:    1    charge:    3.2242    magn:    1.0542    constr:    0.0000
     atom:    2    charge:    3.2243    magn:    1.0542    constr:    0.0000
     atom:    3    charge:    3.2242    magn:    1.0542    constr:    0.0000
     atom:    4    charge:    3.1986    magn:    1.0651    constr:    0.0000
     atom:    5    charge:    3.1986    magn:    1.0650    constr:    0.0000
     atom:    6    charge:    3.1986    magn:    1.0650    constr:    0.0000
     atom:    7    charge:    3.1919    magn:    1.0545    constr:    0.0000
     atom:    8    charge:    3.1919    magn:    1.0545    constr:    0.0000
     atom:    9    charge:    3.1919    magn:    1.0545    constr:    0.0000
     atom:   10    charge:    3.1901    magn:    1.0490    constr:    0.0000
     atom:   11    charge:    3.1901    magn:    1.0490    constr:    0.0000
     atom:   12    charge:    3.1901    magn:    1.0490    constr:    0.0000
     atom:   13    charge:    3.1946    magn:    1.0479    constr:    0.0000
     atom:   14    charge:    3.1946    magn:    1.0479    constr:    0.0000
     atom:   15    charge:    3.1946    magn:    1.0479    constr:    0.0000
     atom:   16    charge:    3.1961    magn:    1.0460    constr:    0.0000
     atom:   17    charge:    3.1961    magn:    1.0460    constr:    0.0000
     atom:   18    charge:    3.1961    magn:    1.0460    constr:    0.0000
     atom:   19    charge:    3.1957    magn:    1.0459    constr:    0.0000
     atom:   20    charge:    3.1957    magn:    1.0459    constr:    0.0000
     atom:   21    charge:    3.1957    magn:    1.0460    constr:    0.0000
     atom:   22    charge:    3.1945    magn:    1.0480    constr:    0.0000
     atom:   23    charge:    3.1945    magn:    1.0480    constr:    0.0000
     atom:   24    charge:    3.1945    magn:    1.0480    constr:    0.0000
     atom:   25    charge:    3.1903    magn:    1.0492    constr:    0.0000
     atom:   26    charge:    3.1903    magn:    1.0492    constr:    0.0000
     atom:   27    charge:    3.1903    magn:    1.0492    constr:    0.0000
     atom:   28    charge:    3.1913    magn:    1.0546    constr:    0.0000
     atom:   29    charge:    3.1913    magn:    1.0546    constr:    0.0000
     atom:   30    charge:    3.1913    magn:    1.0546    constr:    0.0000
     atom:   31    charge:    3.1985    magn:    1.0651    constr:    0.0000
     atom:   32    charge:    3.1986    magn:    1.0651    constr:    0.0000
     atom:   33    charge:    3.1985    magn:    1.0651    constr:    0.0000
     atom:   34    charge:    3.2248    magn:    1.0539    constr:    0.0000
     atom:   35    charge:    3.2248    magn:    1.0539    constr:    0.0000
     atom:   36    charge:    3.2248    magn:    1.0539    constr:    0.0000

     total cpu time spent up to now is     1010.2 secs

     total energy              =   -2884.95585291 Ry
     Harris-Foulkes estimate   =   -2884.49927206 Ry
     estimated scf accuracy    <       0.69345118 Ry

     total magnetization       =    70.17 Bohr mag/cell
     absolute magnetization    =    71.07 Bohr mag/cell

     iteration # 10     ecut=    44.10 Ry     beta=0.10
     Davidson diagonalization with overlap
     c_bands:  1 eigenvalues not converged
     ethr =  1.70E-04,  avg # of iterations =  6.6

     negative rho (up, down):  1.768E-02 1.581E-02
 
     Adding external electric field

     Computed dipole along edir(3) : 
        Dipole               -0.0080 Ry au,         -0.0204 Debye
        Dipole field         -0.0000 Ry au
 
        Potential amp.        0.0012 Ry
        Total length         73.7482 bohr
 
 
     Adding external electric field

     Computed dipole along edir(3) : 
        Dipole               -0.0080 Ry au,         -0.0204 Debye
        Dipole field         -0.0000 Ry au
 
        Potential amp.        0.0012 Ry
        Total length         73.7482 bohr
 
 
     Magnetic moment per site:
     atom:    1    charge:    3.2246    magn:    1.0051    constr:    0.0000
     atom:    2    charge:    3.2245    magn:    1.0052    constr:    0.0000
     atom:    3    charge:    3.2245    magn:    1.0051    constr:    0.0000
     atom:    4    charge:    3.2030    magn:    1.0137    constr:    0.0000
     atom:    5    charge:    3.2030    magn:    1.0138    constr:    0.0000
     atom:    6    charge:    3.2030    magn:    1.0138    constr:    0.0000
     atom:    7    charge:    3.1971    magn:    0.9996    constr:    0.0000
     atom:    8    charge:    3.1971    magn:    0.9996    constr:    0.0000
     atom:    9    charge:    3.1971    magn:    0.9996    constr:    0.0000
     atom:   10    charge:    3.1929    magn:    0.9947    constr:    0.0000
     atom:   11    charge:    3.1928    magn:    0.9947    constr:    0.0000
     atom:   12    charge:    3.1928    magn:    0.9947    constr:    0.0000
     atom:   13    charge:    3.1959    magn:    0.9939    constr:    0.0000
     atom:   14    charge:    3.1959    magn:    0.9939    constr:    0.0000
     atom:   15    charge:    3.1959    magn:    0.9939    constr:    0.0000
     atom:   16    charge:    3.1953    magn:    0.9915    constr:    0.0000
     atom:   17    charge:    3.1953    magn:    0.9915    constr:    0.0000
     atom:   18    charge:    3.1953    magn:    0.9915    constr:    0.0000
     atom:   19    charge:    3.1952    magn:    0.9913    constr:    0.0000
     atom:   20    charge:    3.1952    magn:    0.9913    constr:    0.0000
     atom:   21    charge:    3.1952    magn:    0.9913    constr:    0.0000
     atom:   22    charge:    3.1964    magn:    0.9936    constr:    0.0000
     atom:   23    charge:    3.1964    magn:    0.9936    constr:    0.0000
     atom:   24    charge:    3.1964    magn:    0.9936    constr:    0.0000
     atom:   25    charge:    3.1934    magn:    0.9945    constr:    0.0000
     atom:   26    charge:    3.1934    magn:    0.9946    constr:    0.0000
     atom:   27    charge:    3.1934    magn:    0.9946    constr:    0.0000
     atom:   28    charge:    3.1978    magn:    0.9987    constr:    0.0000
     atom:   29    charge:    3.1978    magn:    0.9987    constr:    0.0000
     atom:   30    charge:    3.1978    magn:    0.9987    constr:    0.0000
     atom:   31    charge:    3.2033    magn:    1.0136    constr:    0.0000
     atom:   32    charge:    3.2033    magn:    1.0136    constr:    0.0000
     atom:   33    charge:    3.2033    magn:    1.0136    constr:    0.0000
     atom:   34    charge:    3.2237    magn:    1.0058    constr:    0.0000
     atom:   35    charge:    3.2237    magn:    1.0058    constr:    0.0000
     atom:   36    charge:    3.2237    magn:    1.0059    constr:    0.0000

     total cpu time spent up to now is     1129.6 secs

     total energy              =   -2885.09353413 Ry
     Harris-Foulkes estimate   =   -2885.16006217 Ry
     estimated scf accuracy    <       5.52110691 Ry

     total magnetization       =    66.21 Bohr mag/cell
     absolute magnetization    =    69.53 Bohr mag/cell

     iteration # 11     ecut=    44.10 Ry     beta=0.10
     Davidson diagonalization with overlap
     c_bands:  5 eigenvalues not converged
     ethr =  1.70E-04,  avg # of iterations =  9.7

     negative rho (up, down):  1.738E-02 1.583E-02
 
     Adding external electric field

     Computed dipole along edir(3) : 
        Dipole                0.0084 Ry au,          0.0213 Debye
        Dipole field          0.0000 Ry au
 
        Potential amp.       -0.0012 Ry
        Total length         73.7482 bohr
 
 
     Adding external electric field

     Computed dipole along edir(3) : 
        Dipole                0.0084 Ry au,          0.0213 Debye
        Dipole field          0.0000 Ry au
 
        Potential amp.       -0.0012 Ry
        Total length         73.7482 bohr
 
 
     Magnetic moment per site:
     atom:    1    charge:    3.2212    magn:    0.9926    constr:    0.0000
     atom:    2    charge:    3.2213    magn:    0.9925    constr:    0.0000
     atom:    3    charge:    3.2213    magn:    0.9926    constr:    0.0000
     atom:    4    charge:    3.2057    magn:    0.9981    constr:    0.0000
     atom:    5    charge:    3.2057    magn:    0.9981    constr:    0.0000
     atom:    6    charge:    3.2058    magn:    0.9981    constr:    0.0000
     atom:    7    charge:    3.2002    magn:    0.9831    constr:    0.0000
     atom:    8    charge:    3.2002    magn:    0.9830    constr:    0.0000
     atom:    9    charge:    3.2002    magn:    0.9831    constr:    0.0000
     atom:   10    charge:    3.1964    magn:    0.9774    constr:    0.0000
     atom:   11    charge:    3.1964    magn:    0.9773    constr:    0.0000
     atom:   12    charge:    3.1964    magn:    0.9773    constr:    0.0000
     atom:   13    charge:    3.1978    magn:    0.9772    constr:    0.0000
     atom:   14    charge:    3.1978    magn:    0.9772    constr:    0.0000
     atom:   15    charge:    3.1978    magn:    0.9772    constr:    0.0000
     atom:   16    charge:    3.1975    magn:    0.9737    constr:    0.0000
     atom:   17    charge:    3.1975    magn:    0.9737    constr:    0.0000
     atom:   18    charge:    3.1975    magn:    0.9737    constr:    0.0000
     atom:   19    charge:    3.1969    magn:    0.9738    constr:    0.0000
     atom:   20    charge:    3.1969    magn:    0.9738    constr:    0.0000
     atom:   21    charge:    3.1969    magn:    0.9738    constr:    0.0000
     atom:   22    charge:    3.1974    magn:    0.9776    constr:    0.0000
     atom:   23    charge:    3.1974    magn:    0.9776    constr:    0.0000
     atom:   24    charge:    3.1974    magn:    0.9776    constr:    0.0000
     atom:   25    charge:    3.1964    magn:    0.9777    constr:    0.0000
     atom:   26    charge:    3.1964    magn:    0.9777    constr:    0.0000
     atom:   27    charge:    3.1964    magn:    0.9776    constr:    0.0000
     atom:   28    charge:    3.1992    magn:    0.9834    constr:    0.0000
     atom:   29    charge:    3.1992    magn:    0.9834    constr:    0.0000
     atom:   30    charge:    3.1992    magn:    0.9834    constr:    0.0000
     atom:   31    charge:    3.2056    magn:    0.9983    constr:    0.0000
     atom:   32    charge:    3.2056    magn:    0.9983    constr:    0.0000
     atom:   33    charge:    3.2056    magn:    0.9983    constr:    0.0000
     atom:   34    charge:    3.2226    magn:    0.9916    constr:    0.0000
     atom:   35    charge:    3.2227    magn:    0.9915    constr:    0.0000
     atom:   36    charge:    3.2227    magn:    0.9915    constr:    0.0000

     total cpu time spent up to now is     1258.5 secs

     total energy              =   -2885.15668661 Ry
     Harris-Foulkes estimate   =   -2885.16472583 Ry
     estimated scf accuracy    <       0.53672381 Ry

     total magnetization       =    64.75 Bohr mag/cell
     absolute magnetization    =    69.16 Bohr mag/cell

     iteration # 12     ecut=    44.10 Ry     beta=0.10
     Davidson diagonalization with overlap
     c_bands:  1 eigenvalues not converged
     ethr =  1.66E-04,  avg # of iterations =  3.1

     negative rho (up, down):  1.580E-02 1.547E-02
 
     Adding external electric field

     Computed dipole along edir(3) : 
        Dipole               -0.0045 Ry au,         -0.0115 Debye
        Dipole field         -0.0000 Ry au
 
        Potential amp.        0.0007 Ry
        Total length         73.7482 bohr
 
 
     Adding external electric field

     Computed dipole along edir(3) : 
        Dipole               -0.0045 Ry au,         -0.0115 Debye
        Dipole field         -0.0000 Ry au
 
        Potential amp.        0.0007 Ry
        Total length         73.7482 bohr
 
 
     Magnetic moment per site:
     atom:    1    charge:    3.2166    magn:    0.9890    constr:    0.0000
     atom:    2    charge:    3.2165    magn:    0.9891    constr:    0.0000
     atom:    3    charge:    3.2165    magn:    0.9890    constr:    0.0000
     atom:    4    charge:    3.2069    magn:    0.9928    constr:    0.0000
     atom:    5    charge:    3.2069    magn:    0.9928    constr:    0.0000
     atom:    6    charge:    3.2069    magn:    0.9929    constr:    0.0000
     atom:    7    charge:    3.2020    magn:    0.9775    constr:    0.0000
     atom:    8    charge:    3.2020    magn:    0.9775    constr:    0.0000
     atom:    9    charge:    3.2020    magn:    0.9775    constr:    0.0000
     atom:   10    charge:    3.2012    magn:    0.9695    constr:    0.0000
     atom:   11    charge:    3.2012    magn:    0.9695    constr:    0.0000
     atom:   12    charge:    3.2012    magn:    0.9695    constr:    0.0000
     atom:   13    charge:    3.2013    magn:    0.9695    constr:    0.0000
     atom:   14    charge:    3.2013    magn:    0.9695    constr:    0.0000
     atom:   15    charge:    3.2013    magn:    0.9695    constr:    0.0000
     atom:   16    charge:    3.2008    magn:    0.9651    constr:    0.0000
     atom:   17    charge:    3.2008    magn:    0.9651    constr:    0.0000
     atom:   18    charge:    3.2008    magn:    0.9651    constr:    0.0000
     atom:   19    charge:    3.2008    magn:    0.9648    constr:    0.0000
     atom:   20    charge:    3.2008    magn:    0.9648    constr:    0.0000
     atom:   21    charge:    3.2008    magn:    0.9648    constr:    0.0000
     atom:   22    charge:    3.2017    magn:    0.9694    constr:    0.0000
     atom:   23    charge:    3.2017    magn:    0.9694    constr:    0.0000
     atom:   24    charge:    3.2016    magn:    0.9694    constr:    0.0000
     atom:   25    charge:    3.2019    magn:    0.9693    constr:    0.0000
     atom:   26    charge:    3.2018    magn:    0.9693    constr:    0.0000
     atom:   27    charge:    3.2019    magn:    0.9693    constr:    0.0000
     atom:   28    charge:    3.2021    magn:    0.9771    constr:    0.0000
     atom:   29    charge:    3.2021    magn:    0.9771    constr:    0.0000
     atom:   30    charge:    3.2021    magn:    0.9771    constr:    0.0000
     atom:   31    charge:    3.2074    magn:    0.9927    constr:    0.0000
     atom:   32    charge:    3.2073    magn:    0.9928    constr:    0.0000
     atom:   33    charge:    3.2074    magn:    0.9927    constr:    0.0000
     atom:   34    charge:    3.2162    magn:    0.9893    constr:    0.0000
     atom:   35    charge:    3.2162    magn:    0.9892    constr:    0.0000
     atom:   36    charge:    3.2162    magn:    0.9893    constr:    0.0000

     total cpu time spent up to now is     1357.9 secs

     total energy              =   -2885.14407221 Ry
     Harris-Foulkes estimate   =   -2885.16562116 Ry
     estimated scf accuracy    <       0.12868838 Ry

     total magnetization       =    64.10 Bohr mag/cell
     absolute magnetization    =    69.00 Bohr mag/cell

     iteration # 13     ecut=    44.10 Ry     beta=0.10
     Davidson diagonalization with overlap
     ethr =  3.97E-05,  avg # of iterations =  7.9

     negative rho (up, down):  1.479E-02 1.503E-02
 
     Adding external electric field

     Computed dipole along edir(3) : 
        Dipole                0.0013 Ry au,          0.0032 Debye
        Dipole field          0.0000 Ry au
 
        Potential amp.       -0.0002 Ry
        Total length         73.7482 bohr
 
 
     Adding external electric field

     Computed dipole along edir(3) : 
        Dipole                0.0013 Ry au,          0.0032 Debye
        Dipole field          0.0000 Ry au
 
        Potential amp.       -0.0002 Ry
        Total length         73.7482 bohr
 
 
     Magnetic moment per site:
     atom:    1    charge:    3.2171    magn:    0.9850    constr:    0.0000
     atom:    2    charge:    3.2172    magn:    0.9850    constr:    0.0000
     atom:    3    charge:    3.2172    magn:    0.9850    constr:    0.0000
     atom:    4    charge:    3.2071    magn:    0.9885    constr:    0.0000
     atom:    5    charge:    3.2071    magn:    0.9885    constr:    0.0000
     atom:    6    charge:    3.2071    magn:    0.9885    constr:    0.0000
     atom:    7    charge:    3.2025    magn:    0.9727    constr:    0.0000
     atom:    8    charge:    3.2026    magn:    0.9727    constr:    0.0000
     atom:    9    charge:    3.2025    magn:    0.9727    constr:    0.0000
     atom:   10    charge:    3.2008    magn:    0.9645    constr:    0.0000
     atom:   11    charge:    3.2008    magn:    0.9645    constr:    0.0000
     atom:   12    charge:    3.2008    magn:    0.9645    constr:    0.0000
     atom:   13    charge:    3.2017    magn:    0.9641    constr:    0.0000
     atom:   14    charge:    3.2017    magn:    0.9641    constr:    0.0000
     atom:   15    charge:    3.2017    magn:    0.9641    constr:    0.0000
     atom:   16    charge:    3.2002    magn:    0.9603    constr:    0.0000
     atom:   17    charge:    3.2002    magn:    0.9603    constr:    0.0000
     atom:   18    charge:    3.2002    magn:    0.9603    constr:    0.0000
     atom:   19    charge:    3.1999    magn:    0.9601    constr:    0.0000
     atom:   20    charge:    3.1999    magn:    0.9601    constr:    0.0000
     atom:   21    charge:    3.1999    magn:    0.9601    constr:    0.0000
     atom:   22    charge:    3.2018    magn:    0.9642    constr:    0.0000
     atom:   23    charge:    3.2018    magn:    0.9642    constr:    0.0000
     atom:   24    charge:    3.2018    magn:    0.9642    constr:    0.0000
     atom:   25    charge:    3.2010    magn:    0.9646    constr:    0.0000
     atom:   26    charge:    3.2010    magn:    0.9647    constr:    0.0000
     atom:   27    charge:    3.2010    magn:    0.9646    constr:    0.0000
     atom:   28    charge:    3.2024    magn:    0.9724    constr:    0.0000
     atom:   29    charge:    3.2024    magn:    0.9724    constr:    0.0000
     atom:   30    charge:    3.2024    magn:    0.9724    constr:    0.0000
     atom:   31    charge:    3.2071    magn:    0.9887    constr:    0.0000
     atom:   32    charge:    3.2071    magn:    0.9887    constr:    0.0000
     atom:   33    charge:    3.2071    magn:    0.9887    constr:    0.0000
     atom:   34    charge:    3.2176    magn:    0.9846    constr:    0.0000
     atom:   35    charge:    3.2176    magn:    0.9845    constr:    0.0000
     atom:   36    charge:    3.2176    magn:    0.9846    constr:    0.0000

     total cpu time spent up to now is     1478.3 secs

     total energy              =   -2885.16138335 Ry
     Harris-Foulkes estimate   =   -2885.15935157 Ry
     estimated scf accuracy    <       0.02081378 Ry

     total magnetization       =    63.55 Bohr mag/cell
     absolute magnetization    =    68.74 Bohr mag/cell

     iteration # 14     ecut=    44.10 Ry     beta=0.10
     Davidson diagonalization with overlap
     ethr =  6.42E-06,  avg # of iterations =  6.0

     negative rho (up, down):  1.397E-02 1.496E-02
 
     Adding external electric field

     Computed dipole along edir(3) : 
        Dipole                0.0012 Ry au,          0.0030 Debye
        Dipole field          0.0000 Ry au
 
        Potential amp.       -0.0002 Ry
        Total length         73.7482 bohr
 
 
     Adding external electric field

     Computed dipole along edir(3) : 
        Dipole                0.0012 Ry au,          0.0030 Debye
        Dipole field          0.0000 Ry au
 
        Potential amp.       -0.0002 Ry
        Total length         73.7482 bohr
 
 
     Magnetic moment per site:
     atom:    1    charge:    3.2182    magn:    0.9796    constr:    0.0000
     atom:    2    charge:    3.2182    magn:    0.9795    constr:    0.0000
     atom:    3    charge:    3.2182    magn:    0.9796    constr:    0.0000
     atom:    4    charge:    3.2081    magn:    0.9811    constr:    0.0000
     atom:    5    charge:    3.2081    magn:    0.9811    constr:    0.0000
     atom:    6    charge:    3.2081    magn:    0.9811    constr:    0.0000
     atom:    7    charge:    3.2028    magn:    0.9655    constr:    0.0000
     atom:    8    charge:    3.2028    magn:    0.9655    constr:    0.0000
     atom:    9    charge:    3.2028    magn:    0.9655    constr:    0.0000
     atom:   10    charge:    3.2001    magn:    0.9562    constr:    0.0000
     atom:   11    charge:    3.2001    magn:    0.9562    constr:    0.0000
     atom:   12    charge:    3.2001    magn:    0.9562    constr:    0.0000
     atom:   13    charge:    3.2004    magn:    0.9562    constr:    0.0000
     atom:   14    charge:    3.2004    magn:    0.9562    constr:    0.0000
     atom:   15    charge:    3.2004    magn:    0.9562    constr:    0.0000
     atom:   16    charge:    3.1993    magn:    0.9518    constr:    0.0000
     atom:   17    charge:    3.1993    magn:    0.9518    constr:    0.0000
     atom:   18    charge:    3.1993    magn:    0.9518    constr:    0.0000
     atom:   19    charge:    3.1989    magn:    0.9517    constr:    0.0000
     atom:   20    charge:    3.1989    magn:    0.9517    constr:    0.0000
     atom:   21    charge:    3.1989    magn:    0.9517    constr:    0.0000
     atom:   22    charge:    3.2005    magn:    0.9563    constr:    0.0000
     atom:   23    charge:    3.2005    magn:    0.9563    constr:    0.0000
     atom:   24    charge:    3.2005    magn:    0.9563    constr:    0.0000
     atom:   25    charge:    3.2004    magn:    0.9562    constr:    0.0000
     atom:   26    charge:    3.2004    magn:    0.9562    constr:    0.0000
     atom:   27    charge:    3.2004    magn:    0.9562    constr:    0.0000
     atom:   28    charge:    3.2026    magn:    0.9653    constr:    0.0000
     atom:   29    charge:    3.2026    magn:    0.9653    constr:    0.0000
     atom:   30    charge:    3.2026    magn:    0.9653    constr:    0.0000
     atom:   31    charge:    3.2083    magn:    0.9811    constr:    0.0000
     atom:   32    charge:    3.2083    magn:    0.9811    constr:    0.0000
     atom:   33    charge:    3.2083    magn:    0.9811    constr:    0.0000
     atom:   34    charge:    3.2184    magn:    0.9792    constr:    0.0000
     atom:   35    charge:    3.2184    magn:    0.9792    constr:    0.0000
     atom:   36    charge:    3.2184    magn:    0.9792    constr:    0.0000

     total cpu time spent up to now is     1592.3 secs

     total energy              =   -2885.16616209 Ry
     Harris-Foulkes estimate   =   -2885.16286139 Ry
     estimated scf accuracy    <       0.00859533 Ry

     total magnetization       =    63.40 Bohr mag/cell
     absolute magnetization    =    68.74 Bohr mag/cell

     iteration # 15     ecut=    44.10 Ry     beta=0.10
     Davidson diagonalization with overlap
     ethr =  2.65E-06,  avg # of iterations =  3.8

     negative rho (up, down):  1.262E-02 1.428E-02
 
     Adding external electric field

     Computed dipole along edir(3) : 
        Dipole               -0.0000 Ry au,         -0.0000 Debye
        Dipole field         -0.0000 Ry au
 
        Potential amp.        0.0000 Ry
        Total length         73.7482 bohr
 
 
     Adding external electric field

     Computed dipole along edir(3) : 
        Dipole               -0.0000 Ry au,         -0.0000 Debye
        Dipole field         -0.0000 Ry au
 
        Potential amp.        0.0000 Ry
        Total length         73.7482 bohr
 
 
     Magnetic moment per site:
     atom:    1    charge:    3.2179    magn:    0.9825    constr:    0.0000
     atom:    2    charge:    3.2180    magn:    0.9825    constr:    0.0000
     atom:    3    charge:    3.2179    magn:    0.9825    constr:    0.0000
     atom:    4    charge:    3.2076    magn:    0.9845    constr:    0.0000
     atom:    5    charge:    3.2076    magn:    0.9844    constr:    0.0000
     atom:    6    charge:    3.2076    magn:    0.9844    constr:    0.0000
     atom:    7    charge:    3.2024    magn:    0.9690    constr:    0.0000
     atom:    8    charge:    3.2024    magn:    0.9690    constr:    0.0000
     atom:    9    charge:    3.2024    magn:    0.9690    constr:    0.0000
     atom:   10    charge:    3.2002    magn:    0.9595    constr:    0.0000
     atom:   11    charge:    3.2002    magn:    0.9595    constr:    0.0000
     atom:   12    charge:    3.2002    magn:    0.9595    constr:    0.0000
     atom:   13    charge:    3.2009    magn:    0.9594    constr:    0.0000
     atom:   14    charge:    3.2009    magn:    0.9594    constr:    0.0000
     atom:   15    charge:    3.2009    magn:    0.9594    constr:    0.0000
     atom:   16    charge:    3.1999    magn:    0.9549    constr:    0.0000
     atom:   17    charge:    3.1999    magn:    0.9550    constr:    0.0000
     atom:   18    charge:    3.1999    magn:    0.9550    constr:    0.0000
     atom:   19    charge:    3.1996    magn:    0.9548    constr:    0.0000
     atom:   20    charge:    3.1996    magn:    0.9547    constr:    0.0000
     atom:   21    charge:    3.1996    magn:    0.9548    constr:    0.0000
     atom:   22    charge:    3.2010    magn:    0.9595    constr:    0.0000
     atom:   23    charge:    3.2010    magn:    0.9595    constr:    0.0000
     atom:   24    charge:    3.2010    magn:    0.9595    constr:    0.0000
     atom:   25    charge:    3.2006    magn:    0.9596    constr:    0.0000
     atom:   26    charge:    3.2006    magn:    0.9596    constr:    0.0000
     atom:   27    charge:    3.2006    magn:    0.9596    constr:    0.0000
     atom:   28    charge:    3.2022    magn:    0.9687    constr:    0.0000
     atom:   29    charge:    3.2022    magn:    0.9687    constr:    0.0000
     atom:   30    charge:    3.2022    magn:    0.9687    constr:    0.0000
     atom:   31    charge:    3.2077    magn:    0.9845    constr:    0.0000
     atom:   32    charge:    3.2077    magn:    0.9845    constr:    0.0000
     atom:   33    charge:    3.2077    magn:    0.9845    constr:    0.0000
     atom:   34    charge:    3.2182    magn:    0.9822    constr:    0.0000
     atom:   35    charge:    3.2182    magn:    0.9821    constr:    0.0000
     atom:   36    charge:    3.2182    magn:    0.9821    constr:    0.0000

     total cpu time spent up to now is     1694.3 secs

     total energy              =   -2885.16591372 Ry
     Harris-Foulkes estimate   =   -2885.16692206 Ry
     estimated scf accuracy    <       0.00669842 Ry

     total magnetization       =    63.10 Bohr mag/cell
     absolute magnetization    =    68.74 Bohr mag/cell

     iteration # 16     ecut=    44.10 Ry     beta=0.10
     Davidson diagonalization with overlap
     ethr =  2.07E-06,  avg # of iterations =  1.4

     negative rho (up, down):  1.150E-02 1.429E-02
 
     Adding external electric field

     Computed dipole along edir(3) : 
        Dipole               -0.0007 Ry au,         -0.0018 Debye
        Dipole field         -0.0000 Ry au
 
        Potential amp.        0.0001 Ry
        Total length         73.7482 bohr
 
 
     Adding external electric field

     Computed dipole along edir(3) : 
        Dipole               -0.0007 Ry au,         -0.0018 Debye
        Dipole field         -0.0000 Ry au
 
        Potential amp.        0.0001 Ry
        Total length         73.7482 bohr
 
 
     Magnetic moment per site:
     atom:    1    charge:    3.2189    magn:    0.9814    constr:    0.0000
     atom:    2    charge:    3.2189    magn:    0.9813    constr:    0.0000
     atom:    3    charge:    3.2189    magn:    0.9814    constr:    0.0000
     atom:    4    charge:    3.2083    magn:    0.9806    constr:    0.0000
     atom:    5    charge:    3.2083    magn:    0.9806    constr:    0.0000
     atom:    6    charge:    3.2083    magn:    0.9806    constr:    0.0000
     atom:    7    charge:    3.2029    magn:    0.9653    constr:    0.0000
     atom:    8    charge:    3.2029    magn:    0.9653    constr:    0.0000
     atom:    9    charge:    3.2029    magn:    0.9653    constr:    0.0000
     atom:   10    charge:    3.1997    magn:    0.9542    constr:    0.0000
     atom:   11    charge:    3.1997    magn:    0.9542    constr:    0.0000
     atom:   12    charge:    3.1997    magn:    0.9542    constr:    0.0000
     atom:   13    charge:    3.1999    magn:    0.9545    constr:    0.0000
     atom:   14    charge:    3.1999    magn:    0.9545    constr:    0.0000
     atom:   15    charge:    3.1999    magn:    0.9545    constr:    0.0000
     atom:   16    charge:    3.1988    magn:    0.9497    constr:    0.0000
     atom:   17    charge:    3.1989    magn:    0.9497    constr:    0.0000
     atom:   18    charge:    3.1989    magn:    0.9497    constr:    0.0000
     atom:   19    charge:    3.1986    magn:    0.9495    constr:    0.0000
     atom:   20    charge:    3.1986    magn:    0.9495    constr:    0.0000
     atom:   21    charge:    3.1986    magn:    0.9495    constr:    0.0000
     atom:   22    charge:    3.1999    magn:    0.9546    constr:    0.0000
     atom:   23    charge:    3.2000    magn:    0.9546    constr:    0.0000
     atom:   24    charge:    3.2000    magn:    0.9546    constr:    0.0000
     atom:   25    charge:    3.2000    magn:    0.9542    constr:    0.0000
     atom:   26    charge:    3.2001    magn:    0.9542    constr:    0.0000
     atom:   27    charge:    3.2000    magn:    0.9542    constr:    0.0000
     atom:   28    charge:    3.2027    magn:    0.9651    constr:    0.0000
     atom:   29    charge:    3.2027    magn:    0.9651    constr:    0.0000
     atom:   30    charge:    3.2027    magn:    0.9651    constr:    0.0000
     atom:   31    charge:    3.2082    magn:    0.9808    constr:    0.0000
     atom:   32    charge:    3.2082    magn:    0.9807    constr:    0.0000
     atom:   33    charge:    3.2082    magn:    0.9808    constr:    0.0000
     atom:   34    charge:    3.2192    magn:    0.9810    constr:    0.0000
     atom:   35    charge:    3.2192    magn:    0.9810    constr:    0.0000
     atom:   36    charge:    3.2192    magn:    0.9810    constr:    0.0000

     total cpu time spent up to now is     1787.0 secs

     total energy              =   -2885.16866101 Ry
     Harris-Foulkes estimate   =   -2885.16638536 Ry
     estimated scf accuracy    <       0.00645804 Ry

     total magnetization       =    63.20 Bohr mag/cell
     absolute magnetization    =    68.77 Bohr mag/cell

     iteration # 17     ecut=    44.10 Ry     beta=0.10
     Davidson diagonalization with overlap
     ethr =  1.99E-06,  avg # of iterations =  3.0

     negative rho (up, down):  1.044E-02 1.413E-02
 
     Adding external electric field

     Computed dipole along edir(3) : 
        Dipole                0.0067 Ry au,          0.0170 Debye
        Dipole field          0.0000 Ry au
 
        Potential amp.       -0.0010 Ry
        Total length         73.7482 bohr
 
 
     Adding external electric field

     Computed dipole along edir(3) : 
        Dipole                0.0067 Ry au,          0.0170 Debye
        Dipole field          0.0000 Ry au
 
        Potential amp.       -0.0010 Ry
        Total length         73.7482 bohr
 
 
     Magnetic moment per site:
     atom:    1    charge:    3.2191    magn:    0.9827    constr:    0.0000
     atom:    2    charge:    3.2191    magn:    0.9826    constr:    0.0000
     atom:    3    charge:    3.2192    magn:    0.9826    constr:    0.0000
     atom:    4    charge:    3.2084    magn:    0.9806    constr:    0.0000
     atom:    5    charge:    3.2084    magn:    0.9806    constr:    0.0000
     atom:    6    charge:    3.2084    magn:    0.9806    constr:    0.0000
     atom:    7    charge:    3.2030    magn:    0.9655    constr:    0.0000
     atom:    8    charge:    3.2030    magn:    0.9655    constr:    0.0000
     atom:    9    charge:    3.2030    magn:    0.9655    constr:    0.0000
     atom:   10    charge:    3.1993    magn:    0.9536    constr:    0.0000
     atom:   11    charge:    3.1993    magn:    0.9536    constr:    0.0000
     atom:   12    charge:    3.1993    magn:    0.9536    constr:    0.0000
     atom:   13    charge:    3.1997    magn:    0.9540    constr:    0.0000
     atom:   14    charge:    3.1997    magn:    0.9540    constr:    0.0000
     atom:   15    charge:    3.1997    magn:    0.9540    constr:    0.0000
     atom:   16    charge:    3.1988    magn:    0.9489    constr:    0.0000
     atom:   17    charge:    3.1988    magn:    0.9489    constr:    0.0000
     atom:   18    charge:    3.1988    magn:    0.9489    constr:    0.0000
     atom:   19    charge:    3.1984    magn:    0.9488    constr:    0.0000
     atom:   20    charge:    3.1984    magn:    0.9488    constr:    0.0000
     atom:   21    charge:    3.1984    magn:    0.9488    constr:    0.0000
     atom:   22    charge:    3.1998    magn:    0.9540    constr:    0.0000
     atom:   23    charge:    3.1997    magn:    0.9540    constr:    0.0000
     atom:   24    charge:    3.1997    magn:    0.9540    constr:    0.0000
     atom:   25    charge:    3.1996    magn:    0.9536    constr:    0.0000
     atom:   26    charge:    3.1995    magn:    0.9536    constr:    0.0000
     atom:   27    charge:    3.1995    magn:    0.9536    constr:    0.0000
     atom:   28    charge:    3.2027    magn:    0.9653    constr:    0.0000
     atom:   29    charge:    3.2027    magn:    0.9653    constr:    0.0000
     atom:   30    charge:    3.2027    magn:    0.9653    constr:    0.0000
     atom:   31    charge:    3.2085    magn:    0.9806    constr:    0.0000
     atom:   32    charge:    3.2085    magn:    0.9806    constr:    0.0000
     atom:   33    charge:    3.2085    magn:    0.9806    constr:    0.0000
     atom:   34    charge:    3.2195    magn:    0.9823    constr:    0.0000
     atom:   35    charge:    3.2195    magn:    0.9823    constr:    0.0000
     atom:   36    charge:    3.2195    magn:    0.9823    constr:    0.0000

     total cpu time spent up to now is     1885.6 secs

     total energy              =   -2885.16991776 Ry
     Harris-Foulkes estimate   =   -2885.16908478 Ry
     estimated scf accuracy    <       0.00207806 Ry

     total magnetization       =    62.99 Bohr mag/cell
     absolute magnetization    =    68.81 Bohr mag/cell

     iteration # 18     ecut=    44.10 Ry     beta=0.10
     Davidson diagonalization with overlap
     ethr =  6.41E-07,  avg # of iterations =  3.5

     negative rho (up, down):  9.720E-03 1.398E-02
 
     Adding external electric field

     Computed dipole along edir(3) : 
        Dipole               -0.0045 Ry au,         -0.0114 Debye
        Dipole field         -0.0000 Ry au
 
        Potential amp.        0.0007 Ry
        Total length         73.7482 bohr
 
 
     Adding external electric field

     Computed dipole along edir(3) : 
        Dipole               -0.0045 Ry au,         -0.0114 Debye
        Dipole field         -0.0000 Ry au
 
        Potential amp.        0.0007 Ry
        Total length         73.7482 bohr
 
 
     Magnetic moment per site:
     atom:    1    charge:    3.2192    magn:    0.9828    constr:    0.0000
     atom:    2    charge:    3.2192    magn:    0.9827    constr:    0.0000
     atom:    3    charge:    3.2192    magn:    0.9828    constr:    0.0000
     atom:    4    charge:    3.2085    magn:    0.9806    constr:    0.0000
     atom:    5    charge:    3.2085    magn:    0.9806    constr:    0.0000
     atom:    6    charge:    3.2085    magn:    0.9806    constr:    0.0000
     atom:    7    charge:    3.2030    magn:    0.9656    constr:    0.0000
     atom:    8    charge:    3.2030    magn:    0.9656    constr:    0.0000
     atom:    9    charge:    3.2030    magn:    0.9656    constr:    0.0000
     atom:   10    charge:    3.1993    magn:    0.9536    constr:    0.0000
     atom:   11    charge:    3.1993    magn:    0.9536    constr:    0.0000
     atom:   12    charge:    3.1993    magn:    0.9536    constr:    0.0000
     atom:   13    charge:    3.1997    magn:    0.9540    constr:    0.0000
     atom:   14    charge:    3.1997    magn:    0.9540    constr:    0.0000
     atom:   15    charge:    3.1997    magn:    0.9540    constr:    0.0000
     atom:   16    charge:    3.1988    magn:    0.9489    constr:    0.0000
     atom:   17    charge:    3.1988    magn:    0.9489    constr:    0.0000
     atom:   18    charge:    3.1988    magn:    0.9489    constr:    0.0000
     atom:   19    charge:    3.1985    magn:    0.9488    constr:    0.0000
     atom:   20    charge:    3.1984    magn:    0.9488    constr:    0.0000
     atom:   21    charge:    3.1984    magn:    0.9488    constr:    0.0000
     atom:   22    charge:    3.1998    magn:    0.9541    constr:    0.0000
     atom:   23    charge:    3.1998    magn:    0.9541    constr:    0.0000
     atom:   24    charge:    3.1997    magn:    0.9541    constr:    0.0000
     atom:   25    charge:    3.1995    magn:    0.9537    constr:    0.0000
     atom:   26    charge:    3.1995    magn:    0.9537    constr:    0.0000
     atom:   27    charge:    3.1995    magn:    0.9537    constr:    0.0000
     atom:   28    charge:    3.2027    magn:    0.9654    constr:    0.0000
     atom:   29    charge:    3.2027    magn:    0.9654    constr:    0.0000
     atom:   30    charge:    3.2027    magn:    0.9654    constr:    0.0000
     atom:   31    charge:    3.2085    magn:    0.9806    constr:    0.0000
     atom:   32    charge:    3.2085    magn:    0.9807    constr:    0.0000
     atom:   33    charge:    3.2085    magn:    0.9806    constr:    0.0000
     atom:   34    charge:    3.2195    magn:    0.9825    constr:    0.0000
     atom:   35    charge:    3.2195    magn:    0.9825    constr:    0.0000
     atom:   36    charge:    3.2195    magn:    0.9825    constr:    0.0000

     total cpu time spent up to now is     1985.9 secs

     total energy              =   -2885.17024209 Ry
     Harris-Foulkes estimate   =   -2885.17006774 Ry
     estimated scf accuracy    <       0.00962396 Ry

     total magnetization       =    62.95 Bohr mag/cell
     absolute magnetization    =    68.85 Bohr mag/cell

     iteration # 19     ecut=    44.10 Ry     beta=0.10
     Davidson diagonalization with overlap
[...]
    -2.8437  -2.8283  -2.8082  -2.7832  -2.7789  -2.7460  -2.7427  -2.7189
    -2.7137  -2.6937  -2.6521  -2.6465  -2.6273  -2.6000  -2.5879  -2.5491
    -2.5432  -2.5142  -2.5108  -2.4956  -2.4757  -2.4529  -2.4423  -2.4194
    -2.4143  -2.3738  -2.3599  -2.3476  -2.3420  -2.3130  -2.2736  -2.2400
    -2.2248  -2.1673  -2.1662  -2.1636  -2.1387  -2.1341  -2.1126  -2.1072
    -2.0905  -2.0846  -2.0820  -2.0754  -2.0344  -2.0324  -2.0047  -1.9652
    -1.9626  -1.9531  -1.9406  -1.9047  -1.8941  -1.8588  -1.8551  -1.8483
    -1.8248  -1.8004  -1.7772  -1.7659  -1.7437  -1.7085  -1.7060  -1.6770
    -1.6730  -1.6432  -1.6332  -1.5656  -1.5639  -1.5211  -1.5197  -1.5180
    -1.4851  -1.4811  -1.4767  -1.4715  -1.4443  -1.4060  -1.3739  -1.3720
    -1.3646  -1.3255  -1.3102  -1.2673  -1.2529  -1.1598  -1.0985  -0.7470
    -0.6616  -0.5502  -0.2975   0.0877   0.2334   0.2731   0.2952   0.4622
     0.6720   0.6860   1.2097   1.2607   1.5833   1.8144   1.8495   1.8546
     1.9777   2.1794   2.7154   2.7693   2.9725   3.1550   3.2189   3.5857
     3.9354   4.0003   4.1304   4.1732   4.2053   4.3402   4.5111   4.5274
     4.7359   4.7948   4.8723   4.9780   5.0199   5.0777   5.1970   5.2421
     5.3730   5.3876   5.4291   5.5148   5.6110   5.6750   5.7599   5.8005
     5.8912   5.9697   6.0929   6.1218   6.1498   6.1771   6.2521   6.3127
     6.3887   6.4706   6.5126   6.5212   6.5914   6.6146   6.6229   6.7708
     6.8942   6.9365   6.9458   6.9899   7.0432   7.0950

 ------ SPIN DOWN ----------


          k = 0.0000 0.0000 0.0000 ( 62705 PWs)   bands (ev):

    -9.0123  -7.8084  -6.4582  -6.4581  -6.1369  -5.5370  -5.4965  -5.4962
    -5.4962  -4.6696  -4.6380  -4.5973  -4.3156  -4.3154  -4.2522  -4.2186
    -4.2185  -4.1689  -4.1688  -3.9023  -3.8553  -3.8550  -3.8282  -3.8280
    -3.8177  -3.6547  -3.5141  -3.5063  -3.5062  -3.4374  -3.4373  -3.3832
    -3.3828  -3.3420  -3.3418  -3.1766  -3.1763  -3.1513  -3.1260  -3.1260
    -2.9323  -2.9321  -2.9183  -2.9182  -2.8207  -2.8206  -2.6194  -2.6190
    -2.5982  -2.5716  -2.5716  -2.5319  -2.5318  -2.4667  -2.4667  -2.4202
    -2.3821  -2.3549  -2.3546  -2.3305  -2.2384  -2.1980  -2.1978  -2.1820
    -2.1699  -2.1699  -2.1003  -2.1002  -2.0548  -2.0267  -2.0266  -1.9753
    -1.9335  -1.9335  -1.8933  -1.8782  -1.8780  -1.8053  -1.8053  -1.7595
    -1.7595  -1.7231  -1.6910  -1.6809  -1.5746  -1.5518  -1.5517  -1.5098
    -1.4930  -1.4852  -1.4730  -1.4571  -1.4570  -1.4492  -1.4129  -1.4127
    -1.3700  -1.3699  -1.3552  -1.3551  -1.3258  -1.2984  -1.2746  -1.2746
    -1.2672  -1.2525  -1.1814  -1.1534  -1.1533  -1.1186  -1.0672  -1.0672
    -1.0487  -1.0067  -0.9526  -0.9330  -0.9330  -0.8311  -0.8310  -0.8187
    -0.7911  -0.7910  -0.7439  -0.7418  -0.6652  -0.6651  -0.6421  -0.5568
    -0.5366  -0.5201  -0.5200  -0.4981  -0.4980  -0.4536  -0.4534  -0.3054
    -0.3001  -0.2802  -0.2800  -0.2737  -0.2232  -0.2230  -0.1960  -0.1947
    -0.1776  -0.1776  -0.1489  -0.1054  -0.1053  -0.0770  -0.0770  -0.0522
    -0.0520  -0.0192  -0.0090  -0.0088   0.0240   0.0444   0.0558   0.0560
     0.0860   0.0861   0.1026   0.1026   0.1232   0.1431   0.1432   0.2168
     0.2792   0.2794   0.2910   0.2912   0.3163   0.3163   0.3646   0.3847
     0.3848   0.3965   0.3965   0.4143   0.4333   0.4333   0.4443   0.4444
     0.4470   0.4832   0.5085   0.5777   0.6284   0.6703   0.6992   0.7089
     0.7869   0.7870   0.9740   1.4420   1.5145   1.6263   1.6265   1.7445
     1.7447   1.9200   1.9201   2.2286   2.2287   2.2509   2.3232   2.4052
     2.4053   3.0069   3.1482   3.2965   3.3334   3.3334   3.3368   3.4912
     3.4913   3.5655   3.5657   3.6459   3.7717   4.0694   4.4943   4.6575
     4.6575   4.9001   5.1441   5.1442   5.1831   5.1832   5.4576   5.7269
     5.7269   5.7785   5.7787   5.9675   5.9676   5.9894   5.9896   6.0287
     6.2515   6.4806   6.4806   6.4940   6.4942   6.5452   6.6508   6.6509
     6.8374   7.0300   7.0887   7.0887   7.0976   7.1813   7.1921   7.1922
     7.2068   7.3103   7.3922   7.3924   7.3935   7.4572

          k = 0.0000 0.0440 0.0000 ( 62728 PWs)   bands (ev):

    -8.7007  -7.8044  -7.5108  -6.6733  -5.8610  -5.2956  -5.2596  -5.1268
    -4.9660  -4.7016  -4.6770  -4.4528  -4.4217  -4.4074  -4.3838  -4.2013
    -4.1842  -4.0708  -4.0378  -4.0182  -3.8824  -3.8453  -3.8087  -3.7252
    -3.7103  -3.6797  -3.6410  -3.6111  -3.6086  -3.5392  -3.5159  -3.4993
    -3.4123  -3.4105  -3.3701  -3.2597  -3.2221  -3.2131  -3.1312  -3.0830
    -3.0667  -2.9878  -2.9211  -2.8857  -2.8164  -2.7973  -2.6507  -2.6167
    -2.6136  -2.5956  -2.5246  -2.5136  -2.5135  -2.5006  -2.4314  -2.4309
    -2.3862  -2.3734  -2.3303  -2.3197  -2.2801  -2.2600  -2.2530  -2.1703
    -2.1614  -2.1484  -2.1291  -2.0769  -2.0568  -2.0125  -1.9645  -1.9588
    -1.9565  -1.9157  -1.8703  -1.8601  -1.8487  -1.8374  -1.8010  -1.7808
    -1.7544  -1.7514  -1.7328  -1.6980  -1.6757  -1.6382  -1.6226  -1.5847
    -1.5773  -1.5728  -1.5145  -1.5062  -1.4500  -1.4405  -1.4178  -1.3970
    -1.3874  -1.3468  -1.3442  -1.3273  -1.3158  -1.2926  -1.2705  -1.2580
    -1.2410  -1.2051  -1.1864  -1.1321  -1.1112  -1.0859  -1.0543  -1.0097
    -0.9814  -0.9600  -0.9587  -0.9437  -0.9337  -0.8933  -0.8678  -0.8629
    -0.8616  -0.8256  -0.8252  -0.7932  -0.7369  -0.7264  -0.6958  -0.6710
    -0.6032  -0.5866  -0.5436  -0.5162  -0.5024  -0.4748  -0.4526  -0.4373
    -0.4243  -0.3702  -0.3456  -0.3115  -0.2905  -0.2677  -0.2522  -0.2327
    -0.2140  -0.2138  -0.1983  -0.1941  -0.1488  -0.1165  -0.0995  -0.0724
    -0.0695  -0.0641  -0.0455  -0.0178   0.0684   0.0684   0.0841   0.0987
     0.1204   0.1702   0.1779   0.2071   0.2648   0.2897   0.2908   0.2958
     0.3009   0.3367   0.3497   0.3597   0.3703   0.3868   0.3934   0.4108
     0.4245   0.4385   0.4610   0.4624   0.4817   0.4989   0.5130   0.5319
     0.5465   0.5751   0.5965   0.6205   0.6652   1.0109   1.0731   1.1071
     1.1086   1.1231   1.1359   1.2317   1.5031   1.6367   1.6570   1.6802
     1.9201   1.9454   2.3313   2.3739   2.4158   2.5663   2.5730   2.7067
     2.7181   2.7449   2.8272   2.8368   3.0795   3.1097   3.2980   3.4459
     3.6014   3.6464   3.6901   3.7864   4.0074   4.0646   4.0844   4.0849
     4.1180   4.3251   4.3837   4.4943   4.5388   4.8008   4.9875   5.0255
     5.1875   5.3778   5.3796   5.4881   5.7055   5.7449   6.0406   6.3123
     6.4576   6.5021   6.5800   6.6602   6.8091   6.8984   6.9270   7.1177
     7.1463   7.2363   7.3216   7.3849   7.4627   7.4650   7.4960   7.5130
     7.5854   7.6002   7.6726   7.7102   7.7847   7.8039

          k = 0.0538 0.0000 0.0000 ( 62649 PWs)   bands (ev):

    -8.5498  -7.4379  -7.1743  -6.2384  -6.1217  -6.1216  -5.6896  -5.3076
    -5.3075  -5.1529  -5.1528  -4.9201  -4.6427  -4.6363  -4.6363  -4.4548
    -4.1432  -4.0990  -4.0989  -3.8616  -3.8615  -3.7461  -3.7172  -3.6540
    -3.6539  -3.4076  -3.3280  -3.3280  -3.2999  -3.2998  -3.2652  -3.2639
    -3.2638  -3.2180  -3.2179  -3.1504  -3.1502  -3.0914  -3.0913  -3.0262
    -3.0218  -3.0216  -2.9714  -2.8426  -2.8426  -2.7793  -2.7793  -2.6824
    -2.6823  -2.6778  -2.5892  -2.5891  -2.4973  -2.4971  -2.4566  -2.4564
    -2.3630  -2.3561  -2.3561  -2.3352  -2.3351  -2.2462  -2.2340  -2.2340
    -2.1750  -2.1074  -2.1074  -2.0003  -1.9979  -1.9978  -1.9208  -1.9208
    -1.9099  -1.8735  -1.8494  -1.8493  -1.7752  -1.7201  -1.7200  -1.6840
    -1.6345  -1.6344  -1.6328  -1.5958  -1.5957  -1.5878  -1.5230  -1.5017
    -1.5016  -1.4707  -1.4630  -1.4532  -1.4531  -1.4153  -1.3818  -1.3818
    -1.3785  -1.3658  -1.3581  -1.3358  -1.3357  -1.2875  -1.2845  -1.2845
    -1.2428  -1.2414  -1.2414  -1.2287  -1.1405  -1.1070  -1.0570  -1.0569
    -1.0250  -0.9802  -0.9802  -0.9645  -0.8713  -0.8669  -0.8530  -0.8530
    -0.7539  -0.7538  -0.7300  -0.6626  -0.6626  -0.6493  -0.5651  -0.5651
    -0.5292  -0.5225  -0.4274  -0.3917  -0.3916  -0.3853  -0.3701  -0.3701
    -0.3057  -0.3056  -0.2959  -0.2693  -0.2517  -0.2517  -0.1953  -0.1953
    -0.1672  -0.1516  -0.1515  -0.1262  -0.1115  -0.1114  -0.0812  -0.0394
    -0.0394  -0.0168   0.0169   0.0169   0.0399   0.0590   0.0825   0.0827
     0.0868   0.1174   0.1174   0.1400   0.1724   0.1724   0.2227   0.2227
     0.2479   0.2648   0.2649   0.2943   0.2944   0.3225   0.3323   0.3324
     0.3555   0.3836   0.4182   0.4183   0.4358   0.4359   0.4402   0.4706
     0.4706   0.4755   0.4854   0.5192   0.5192   0.5360   0.5760   0.5760
     0.6096   0.6346   0.7228   0.7228   0.7485   0.9266   0.9266   1.0568
     1.3660   1.3661   1.7129   2.1742   2.3284   2.3284   3.1062   3.1063
     3.1120   3.5827   3.6974   3.7982   3.8965   4.0053   4.0055   4.1678
     4.1679   4.1816   4.3646   4.6598   4.7437   4.7439   4.8424   4.8426
     4.8701   5.0164   5.0608   5.1927   5.3607   5.4639   5.4641   5.4701
     5.8199   5.8284   5.8285   5.8930   5.9470   5.9471   6.1561   6.2187
     6.2189   6.3871   6.3873   6.4278   6.4345   6.4346   6.6190   6.6190
     6.6337   6.8509   6.8602   6.9350   6.9351   6.9700   6.9700   7.1298
     7.1301   7.1895   7.1896   7.3256   7.4175   7.4977

          k = 0.0538 0.0440 0.0000 ( 62686 PWs)   bands (ev):

    -8.2468  -7.3837  -7.1518  -6.8971  -6.3610  -6.1379  -5.9820  -5.4283
    -5.3246  -4.8392  -4.7601  -4.6903  -4.4537  -4.4031  -4.3992  -4.2859
    -4.2378  -4.1736  -3.9466  -3.9305  -3.9041  -3.8145  -3.7660  -3.7233
    -3.6297  -3.5808  -3.5388  -3.5338  -3.4787  -3.4601  -3.3609  -3.3601
    -3.3351  -3.2953  -3.1923  -3.1031  -3.0573  -3.0204  -3.0159  -2.9856
    -2.9736  -2.9547  -2.9127  -2.8669  -2.8125  -2.7994  -2.7541  -2.7444
    -2.6841  -2.6635  -2.6149  -2.5674  -2.5306  -2.5301  -2.4312  -2.4210
    -2.3745  -2.3729  -2.3202  -2.3176  -2.2392  -2.2116  -2.2078  -2.1816
    -2.1439  -2.1240  -2.0771  -2.0738  -2.0541  -1.9858  -1.9757  -1.9393
    -1.9072  -1.8999  -1.8733  -1.8559  -1.8431  -1.7779  -1.7643  -1.7520
    -1.7062  -1.7003  -1.6914  -1.6499  -1.6290  -1.6144  -1.5937  -1.5568
    -1.5452  -1.4897  -1.4521  -1.4359  -1.4251  -1.4158  -1.3794  -1.3537
    -1.3371  -1.3169  -1.2909  -1.2819  -1.2736  -1.2571  -1.2532  -1.2465
    -1.2068  -1.1792  -1.1788  -1.1382  -1.1307  -1.0806  -1.0750  -1.0678
    -1.0376  -0.9960  -0.9698  -0.9415  -0.9017  -0.8842  -0.8675  -0.8565
    -0.8388  -0.8087  -0.7983  -0.7504  -0.7353  -0.7256  -0.7009  -0.6267
    -0.6190  -0.5949  -0.5905  -0.5147  -0.4684  -0.4667  -0.4092  -0.3660
    -0.3376  -0.3192  -0.3171  -0.2979  -0.2871  -0.2763  -0.2732  -0.2314
    -0.1932  -0.1803  -0.1555  -0.1344  -0.1130  -0.1025  -0.0698  -0.0611
    -0.0503  -0.0143  -0.0086   0.0261   0.0323   0.0416   0.0546   0.0816
     0.0952   0.1263   0.1425   0.1911   0.1993   0.2246   0.2364   0.2464
     0.2897   0.3043   0.3244   0.3723   0.3930   0.4017   0.4195   0.4301
     0.4447   0.4468   0.4623   0.4675   0.4785   0.5066   0.5294   0.5371
     0.5537   0.5563   0.5609   0.5965   0.6023   0.6107   0.6231   0.6894
     0.7347   0.8852   1.1264   1.2211   1.2567   1.3204   1.4191   1.4885
     1.5149   1.5452   2.0026   2.1010   2.2503   2.6597   2.6664   2.6999
     2.7979   2.9742   3.3776   3.4033   3.4987   3.7251   3.8007   3.8804
     4.0285   4.0941   4.2186   4.4432   4.4644   4.4860   4.6581   4.7589
     4.9437   4.9507   4.9742   4.9874   5.1005   5.1638   5.3177   5.3550
     5.3802   5.4889   5.5192   5.5287   5.6473   5.7712   5.7715   5.8440
     6.0399   6.1016   6.1887   6.2122   6.2330   6.3637   6.4343   6.4566
     6.4934   6.6490   6.6607   6.7111   6.9131   6.9268   6.9556   7.0110
     7.0815   7.1023   7.1197   7.2779   7.3644   7.5521

          k = 0.0538-0.0440 0.0000 ( 62686 PWs)   bands (ev):

    -8.2468  -7.3837  -7.1518  -6.8971  -6.3610  -6.1379  -5.9820  -5.4283
    -5.3246  -4.8392  -4.7601  -4.6903  -4.4537  -4.4031  -4.3992  -4.2859
    -4.2378  -4.1736  -3.9467  -3.9305  -3.9041  -3.8145  -3.7660  -3.7233
    -3.6297  -3.5808  -3.5388  -3.5338  -3.4787  -3.4601  -3.3609  -3.3601
    -3.3351  -3.2953  -3.1923  -3.1031  -3.0573  -3.0204  -3.0159  -2.9856
    -2.9736  -2.9547  -2.9127  -2.8669  -2.8125  -2.7994  -2.7541  -2.7444
    -2.6841  -2.6635  -2.6149  -2.5674  -2.5306  -2.5301  -2.4312  -2.4210
    -2.3744  -2.3729  -2.3202  -2.3176  -2.2392  -2.2116  -2.2078  -2.1816
    -2.1439  -2.1240  -2.0771  -2.0738  -2.0541  -1.9858  -1.9757  -1.9393
    -1.9072  -1.8999  -1.8733  -1.8559  -1.8431  -1.7779  -1.7643  -1.7520
    -1.7062  -1.7003  -1.6914  -1.6499  -1.6290  -1.6144  -1.5937  -1.5568
    -1.5452  -1.4897  -1.4521  -1.4359  -1.4251  -1.4158  -1.3794  -1.3537
    -1.3371  -1.3169  -1.2909  -1.2819  -1.2736  -1.2571  -1.2532  -1.2465
    -1.2068  -1.1792  -1.1788  -1.1382  -1.1307  -1.0806  -1.0750  -1.0678
    -1.0376  -0.9960  -0.9698  -0.9415  -0.9017  -0.8842  -0.8675  -0.8565
    -0.8388  -0.8087  -0.7983  -0.7504  -0.7353  -0.7256  -0.7009  -0.6267
    -0.6190  -0.5949  -0.5905  -0.5146  -0.4684  -0.4667  -0.4092  -0.3660
    -0.3376  -0.3192  -0.3171  -0.2979  -0.2871  -0.2763  -0.2732  -0.2314
    -0.1932  -0.1803  -0.1555  -0.1344  -0.1130  -0.1025  -0.0698  -0.0611
    -0.0503  -0.0143  -0.0086   0.0261   0.0323   0.0416   0.0546   0.0816
     0.0952   0.1263   0.1425   0.1911   0.1993   0.2246   0.2364   0.2464
     0.2897   0.3043   0.3244   0.3723   0.3930   0.4017   0.4195   0.4301
     0.4447   0.4468   0.4623   0.4675   0.4785   0.5066   0.5295   0.5371
     0.5537   0.5563   0.5609   0.5965   0.6023   0.6107   0.6231   0.6894
     0.7347   0.8852   1.1264   1.2211   1.2567   1.3204   1.4191   1.4885
     1.5149   1.5452   2.0026   2.1010   2.2503   2.6597   2.6664   2.6999
     2.7979   2.9742   3.3776   3.4033   3.4987   3.7251   3.8007   3.8804
     4.0285   4.0941   4.2186   4.4432   4.4644   4.4860   4.6581   4.7589
     4.9437   4.9507   4.9742   4.9874   5.1005   5.1638   5.3177   5.3550
     5.3802   5.4889   5.5192   5.5287   5.6473   5.7712   5.7715   5.8440
     6.0399   6.1016   6.1887   6.2122   6.2330   6.3637   6.4343   6.4566
     6.4934   6.6490   6.6607   6.7111   6.9131   6.9268   6.9556   7.0110
     7.0815   7.1023   7.1197   7.2779   7.3644   7.5522

     the Fermi energy is    -0.5320 ev

!    total energy              =   -2885.18898680 Ry
     Harris-Foulkes estimate   =   -2885.18890505 Ry
     estimated scf accuracy    <       0.00000062 Ry

     The total energy is the sum of the following terms:

     one-electron contribution =  -60718.29754343 Ry
     hartree contribution      =   30657.32071583 Ry
     xc contribution           =   -1327.38624149 Ry
     ewald contribution        =   28503.28037842 Ry
     electric field correction =       0.00000032 Ry
     smearing contrib. (-TS)   =      -0.10629645 Ry

     total magnetization       =    62.59 Bohr mag/cell
     absolute magnetization    =    69.12 Bohr mag/cell

     convergence has been achieved in  18 iterations

     Forces acting on atoms (Ry/au):


     negative rho (up, down):  5.759E-03 1.974E-02
     atom    1 type  1   force =    -0.00072610    0.00004247    0.00010591
     atom    2 type  1   force =    -0.00076592    0.00001968    0.00003767
     atom    3 type  1   force =    -0.00074211   -0.00006309    0.00008257
     atom    4 type  1   force =     0.00096090   -0.00002538   -0.00124056
     atom    5 type  1   force =     0.00093723    0.00008822   -0.00128475
     atom    6 type  1   force =     0.00094027   -0.00006269   -0.00129351
     atom    7 type  1   force =    -0.00015728    0.00006083   -0.00056107
     atom    8 type  1   force =    -0.00014974    0.00001906   -0.00061063
     atom    9 type  1   force =    -0.00014927   -0.00008039   -0.00057166
     atom   10 type  1   force =    -0.00011405   -0.00002792   -0.00030284
     atom   11 type  1   force =    -0.00011032    0.00011266   -0.00031247
     atom   12 type  1   force =    -0.00010991   -0.00008577   -0.00031170
     atom   13 type  1   force =     0.00011563    0.00010444   -0.00022585
     atom   14 type  1   force =     0.00011179    0.00002818   -0.00021633
     atom   15 type  1   force =     0.00011508   -0.00013334   -0.00022209
     atom   16 type  1   force =     0.00095485   -0.00003001   -0.00096233
     atom   17 type  1   force =     0.00097556    0.00014137   -0.00091873
     atom   18 type  1   force =     0.00098267   -0.00011408   -0.00090934
     atom   19 type  1   force =    -0.00017672    0.00000766   -0.00487911
     atom   20 type  1   force =    -0.00014913   -0.00000008   -0.00482769
     atom   21 type  1   force =    -0.00016797   -0.00000785   -0.00486415
     atom   22 type  1   force =    -0.00170284    0.00000146   -0.00817956
     atom   23 type  1   force =    -0.00169334    0.00000915   -0.00815345
     atom   24 type  1   force =    -0.00168944   -0.00001131   -0.00814317
     atom   25 type  1   force =     0.00368832    0.00000769   -0.01412645
     atom   26 type  1   force =     0.00369476   -0.00000345   -0.01409151
     atom   27 type  1   force =     0.00368882   -0.00000373   -0.01411923
     atom   28 type  1   force =     0.00090873    0.00000187   -0.00959662
     atom   29 type  1   force =     0.00090645    0.00000891   -0.00959640
     atom   30 type  1   force =     0.00090468   -0.00000864   -0.00959627
     atom   31 type  1   force =    -0.00778422    0.00001086    0.01268819
     atom   32 type  1   force =    -0.00777850   -0.00000058    0.01269633
     atom   33 type  1   force =    -0.00778194   -0.00000998    0.01269125
     atom   34 type  1   force =     0.00402311    0.00000117    0.02727177
     atom   35 type  1   force =     0.00402012    0.00001237    0.02727026
     atom   36 type  1   force =     0.00401984   -0.00000975    0.02727356

     Total force =     0.064477     Total SCF correction =     0.002842
 !ASE

     Writing output data file calc.save
 
     init_run     :     39.28s CPU     45.71s WALL (       1 calls)
     electrons    :  17719.66s CPU  20625.49s WALL (       6 calls)
     update_pot   :     12.56s CPU     13.60s WALL (       5 calls)
     forces       :    290.35s CPU    303.21s WALL (       6 calls)

     Called by init_run:
     wfcinit      :     26.01s CPU     31.61s WALL (       1 calls)
     potinit      :      1.17s CPU      1.29s WALL (       1 calls)

     Called by electrons:
     c_bands      :  11762.43s CPU  14007.60s WALL (     200 calls)
     sum_band     :   4027.71s CPU   4551.99s WALL (     200 calls)
     v_of_rho     :    123.83s CPU    145.54s WALL (     206 calls)
     newd         :   1818.77s CPU   1927.60s WALL (     206 calls)
     mix_rho      :     29.25s CPU     35.10s WALL (     200 calls)

     Called by c_bands:
     init_us_2    :     49.60s CPU     54.00s WALL (    4070 calls)
     cegterg      :  11479.31s CPU  13711.37s WALL (    2000 calls)

     Called by *egterg:
     h_psi        :   6085.64s CPU   7845.68s WALL (    6908 calls)
     s_psi        :    808.64s CPU    839.89s WALL (    6908 calls)
     g_psi        :     29.41s CPU     30.05s WALL (    4898 calls)
     cdiaghg      :   1615.09s CPU   1656.93s WALL (    6848 calls)

     Called by h_psi:
     add_vuspsi   :    817.62s CPU    845.82s WALL (    6908 calls)

     General routines
     calbec       :   1270.03s CPU   1304.93s WALL (    8968 calls)
     fft          :    131.35s CPU    153.86s WALL (    6440 calls)
     ffts         :      1.54s CPU      2.12s WALL (     812 calls)
     fftw         :   3179.73s CPU   5267.32s WALL ( 2796122 calls)
     interpolate  :     16.17s CPU     22.16s WALL (     812 calls)
     davcio       :      0.03s CPU      1.45s WALL (      10 calls)
 
     Parallel routines
     fft_scatter  :   1873.77s CPU   3066.26s WALL ( 2803374 calls)
 
     PWSCF        :     5h 1m CPU        5h50m WALL

 
   This run was terminated on:  19:16:43  20Apr2018            

=------------------------------------------------------------------------------=
   JOB DONE.
=------------------------------------------------------------------------------=
