  python dir          : /home/vossj/suncat/lib/python2.7/site-packages/espresso
  espresso dir        : /home/vossj/suncat/esdld/espresso-dynpy-beef/bin
  pseudo dir          : /home/alatimer/bin/psp/esp_psp_w_gbrvRu/
  ase-espresso py git : ffa2778-git



     Program PWSCF v.5.1rc2 (svn rev. ) starts on 24Feb2018 at  5: 8:10 

     This program is part of the open-source Quantum ESPRESSO suite
     for quantum simulation of materials; please cite
         "P. Giannozzi et al., J. Phys.:Condens. Matter 21 395502 (2009);
          URL http://www.quantum-espresso.org", 
     in publications or presentations arising from this work. More details at
     http://www.quantum-espresso.org/quote

     Parallel version (MPI), running on    16 processors
     R & G space division:  proc/nbgrp/npool/nimage =      16
     Reading input from pw.inp
     Message from routine read_cards :
     DEPRECATED: no units specified in CELL_PARAMETERS card

     Current dimensions of program PWSCF are:
     Max number of different atomic species (ntypx) = 10
     Max number of k-points (npk) =  40000
     Max angular momentum in pseudopotentials (lmaxx) =  3
     Presently no symmetry can be used with electric field


     IMPORTANT: XC functional enforced from input :
     Exchange-correlation      = RPBE ( 1  4 28  4 0)
     Any further DFT definition will be discarded
     Please, verify this is what you really want


     Subspace diagonalization in iterative solution of the eigenvalue problem:
     a serial algorithm will be used

 
     Parallelization info
     --------------------
     sticks:   dense  smooth     PW     G-vecs:    dense   smooth      PW
     Min         636     254     68               100790    25480    3562
     Max         637     255     69               100796    25523    3569
     Sum       10181    4073   1103              1612669   408063   57071
 
     Generating pointlists ...
     new r_m :   0.4125 (alat units)  0.7795 (a.u.) for type    1
     new r_m :   0.4125 (alat units)  0.7795 (a.u.) for type    2


     bravais-lattice index     =            0
     lattice parameter (alat)  =       1.8897  a.u.
     unit-cell volume          =   10312.9744 (a.u.)^3
     number of atoms/cell      =           37
     number of atomic types    =            2
     number of electrons       =       330.00
     number of Kohn-Sham states=          265
     kinetic-energy cutoff     =      44.0992  Ry
     charge density cutoff     =     440.9919  Ry
     convergence threshold     =      7.3E-07
     mixing beta               =       0.1000
     number of iterations used =           10  plain     mixing
     Exchange-correlation      = RPBE ( 1  4 28  4 0)
     nstep                     =           50


     celldm(1)=   1.889726  celldm(2)=   0.000000  celldm(3)=   0.000000
     celldm(4)=   0.000000  celldm(5)=   0.000000  celldm(6)=   0.000000

     crystal axes: (cart. coord. in units of alat)
               a(1) = (  13.134537   0.000000   0.000000 )  
               a(2) = (  -4.378179   6.191680   0.000000 )  
               a(3) = (   0.000000   0.000000  18.791614 )  

     reciprocal axes: (cart. coord. in units 2 pi/alat)
               b(1) = (  0.076135  0.053836  0.000000 )  
               b(2) = (  0.000000  0.161507  0.000000 )  
               b(3) = (  0.000000  0.000000  0.053215 )  


     PseudoPot. # 1 for Co read from file:
     /home/alatimer/bin/psp/esp_psp_w_gbrvRu/Co.UPF
     MD5 check sum: f36dda9fe147c5f42efc2a4f7ec0da3d
     Pseudo is Ultrasoft + core correction, Zval =  9.0
     Generated by new atomic code, or converted to UPF format
     Using radial grid of  937 points,  3 beta functions with: 
                l(1) =   1
                l(2) =   2
                l(3) =   2
     Q(r) pseudized with  8 coefficients,  rinner =    1.000   1.000   1.000
                                                       1.000   1.000

     PseudoPot. # 2 for  O read from file:
     /home/alatimer/bin/psp/esp_psp_w_gbrvRu/O.UPF
     MD5 check sum: e057bbcf3229fb5d8c36c0c92f9568b4
     Pseudo is Ultrasoft + core correction, Zval =  6.0
     Generated using "atomic" code by A. Dal Corso  v.5.0.2 svn rev. 9415
     Using radial grid of 1095 points,  4 beta functions with: 
                l(1) =   0
                l(2) =   0
                l(3) =   1
                l(4) =   1
     Q(r) pseudized with 0 coefficients 


     atomic species   valence    mass     pseudopotential
        Co1            9.00    58.93320     Co( 1.00)
        O1             6.00    15.99940      O( 1.00)

     Starting magnetic structure 
     atomic species   magnetization
        Co1          0.444
        O1           0.667

     No symmetry found



   Cartesian axes

     site n.     atom                  positions (alat units)
         1           Co1 tau(   1) = (   0.0000000   0.0000000   7.5000000  )
         2           Co1 tau(   2) = (   2.1890894   0.0000000   8.7638714  )
         3           Co1 tau(   3) = (   0.0000000   0.0000000  10.0277427  )
         4           Co1 tau(   4) = (   2.1890894   0.0000000  11.2916141  )
         5           Co1 tau(   5) = (  -1.4593930   2.0638933   7.5000000  )
         6           Co1 tau(   6) = (   0.7296965   2.0638933   8.7638714  )
         7           Co1 tau(   7) = (  -1.4593930   2.0638933  10.0277427  )
         8           Co1 tau(   8) = (   0.7296965   2.0638933  11.2916141  )
         9           Co1 tau(   9) = (  -2.9187859   4.1277866   7.5000000  )
        10           Co1 tau(  10) = (  -0.7296965   4.1277866   8.7638714  )
        11           Co1 tau(  11) = (  -2.9187859   4.1277866  10.0277427  )
        12           Co1 tau(  12) = (  -0.7296965   4.1277866  11.2916141  )
        13           Co1 tau(  13) = (   4.3781789   0.0000000   7.5000000  )
        14           Co1 tau(  14) = (   6.5672683   0.0000000   8.7638714  )
        15           Co1 tau(  15) = (   4.3781789   0.0000000  10.0277427  )
        16           Co1 tau(  16) = (   6.5672683   0.0000000  11.2916141  )
        17           Co1 tau(  17) = (   2.9187859   2.0638933   7.5000000  )
        18           Co1 tau(  18) = (   5.1078753   2.0638933   8.7638714  )
        19           Co1 tau(  19) = (   2.9187859   2.0638933  10.0277427  )
        20           Co1 tau(  20) = (   5.1078753   2.0638933  11.2916141  )
        21           Co1 tau(  21) = (   1.4593930   4.1277866   7.5000000  )
        22           Co1 tau(  22) = (   3.6484824   4.1277866   8.7638714  )
        23           Co1 tau(  23) = (   1.4593930   4.1277866  10.0277427  )
        24           Co1 tau(  24) = (   3.6484824   4.1277866  11.2916141  )
        25           Co1 tau(  25) = (   8.7563577   0.0000000   7.5000000  )
        26           Co1 tau(  26) = (  10.9454471   0.0000000   8.7638714  )
        27           Co1 tau(  27) = (   8.7563577   0.0000000  10.0277427  )
        28           Co1 tau(  28) = (  10.9454471   0.0000000  11.2916141  )
        29           Co1 tau(  29) = (   7.2969648   2.0638933   7.5000000  )
        30           Co1 tau(  30) = (   9.4860542   2.0638933   8.7638714  )
        31           Co1 tau(  31) = (   7.2969648   2.0638933  10.0277427  )
        32           Co1 tau(  32) = (   9.4860542   2.0638933  11.2916141  )
        33           Co1 tau(  33) = (   5.8375718   4.1277866   7.5000000  )
        34           Co1 tau(  34) = (   8.0266612   4.1277866   8.7638714  )
        35           Co1 tau(  35) = (   5.8375718   4.1277866  10.0277427  )
        36           Co1 tau(  36) = (   8.0266612   4.1277866  11.2916141  )
        37           O1  tau(  37) = (   0.7296965   2.0638933  13.0916141  )

     number of k points=    10  Fermi-Dirac smearing, width (Ry)=  0.0073
                       cart. coord. in units 2pi/alat
        k(    1) = (   0.0000000   0.0000000   0.0000000), wk =   0.1111111
        k(    2) = (   0.0000000   0.0538357   0.0000000), wk =   0.2222222
        k(    3) = (   0.0253784   0.0179452   0.0000000), wk =   0.2222222
        k(    4) = (   0.0253784   0.0717809   0.0000000), wk =   0.2222222
        k(    5) = (   0.0253784  -0.0358905   0.0000000), wk =   0.2222222
        k(    6) = (   0.0000000   0.0000000   0.0000000), wk =   0.1111111
        k(    7) = (   0.0000000   0.0538357   0.0000000), wk =   0.2222222
        k(    8) = (   0.0253784   0.0179452   0.0000000), wk =   0.2222222
        k(    9) = (   0.0253784   0.0717809   0.0000000), wk =   0.2222222
        k(   10) = (   0.0253784  -0.0358905   0.0000000), wk =   0.2222222

     Dense  grid:  1612669 G-vectors     FFT dimensions: ( 180,  96, 240)

     Smooth grid:   408063 G-vectors     FFT dimensions: ( 108,  64, 160)

     Largest allocated arrays     est. size (Mb)     dimensions
        Kohn-Sham Wavefunctions        12.96 Mb     (    3206,  265)
        NL pseudopotentials            23.29 Mb     (    3206,  476)
        Each V/rho on FFT grid          7.91 Mb     (  259200,   2)
        Each G-vector array             0.77 Mb     (  100790)
        G-vector shells                 0.34 Mb     (   44082)
     Largest temporary arrays     est. size (Mb)     dimensions
        Auxiliary wavefunctions        51.85 Mb     (    3206, 1060)
        Each subspace H/S matrix       17.14 Mb     (    1060, 1060)
        Each <psi_i|beta_j> matrix      1.92 Mb     (     476,  265)
        Arrays for rho mixing          39.55 Mb     (  259200,   10)

     Check: negative/imaginary core charge=   -0.000003    0.000000

     Initial potential from superposition of free atoms
     Check: negative starting charge=(component1):   -0.002772
     Check: negative starting charge=(component2):   -0.001069

     starting charge  329.99032, renormalised to  330.00000

     negative rho (up, down):  2.772E-03 1.069E-03
 
     Adding external electric field

     Computed dipole along edir(3) : 
        Dipole               -0.0012 Ry au,         -0.0031 Debye
        Dipole field         -0.0000 Ry au
 
        Potential amp.        0.0001 Ry
        Total length         34.6232 bohr
 
 
     Adding external electric field

     Computed dipole along edir(3) : 
        Dipole               -0.0012 Ry au,         -0.0031 Debye
        Dipole field         -0.0000 Ry au
 
        Potential amp.        0.0001 Ry
        Total length         34.6232 bohr
 
     Starting wfc are  328 randomized atomic wfcs

     total cpu time spent up to now is       44.5 secs

     Self-consistent Calculation

     iteration #  1     ecut=    44.10 Ry     beta=0.10
     Davidson diagonalization with overlap
     ethr =  1.00E-02,  avg # of iterations =  6.9

     negative rho (up, down):  2.742E-03 1.120E-03
 
     Adding external electric field

     Computed dipole along edir(3) : 
        Dipole               -0.1819 Ry au,         -0.4623 Debye
        Dipole field         -0.0002 Ry au
 
        Potential amp.        0.0153 Ry
        Total length         34.6232 bohr
 
 
     Adding external electric field

     Computed dipole along edir(3) : 
        Dipole               -0.1819 Ry au,         -0.4623 Debye
        Dipole field         -0.0002 Ry au
 
        Potential amp.        0.0153 Ry
        Total length         34.6232 bohr
 
 
     Magnetic moment per site:
     atom:    1    charge:    3.1929    magn:    1.4056    constr:    0.0000
     atom:    2    charge:    3.2411    magn:    1.3602    constr:    0.0000
     atom:    3    charge:    3.2421    magn:    1.3598    constr:    0.0000
     atom:    4    charge:    3.1914    magn:    1.4074    constr:    0.0000
     atom:    5    charge:    3.1929    magn:    1.4056    constr:    0.0000
     atom:    6    charge:    3.2451    magn:    1.3553    constr:    0.0000
     atom:    7    charge:    3.2421    magn:    1.3598    constr:    0.0000
     atom:    8    charge:    3.2231    magn:    1.3743    constr:    0.0000
     atom:    9    charge:    3.1919    magn:    1.4064    constr:    0.0000
     atom:   10    charge:    3.2411    magn:    1.3602    constr:    0.0000
     atom:   11    charge:    3.2415    magn:    1.3597    constr:    0.0000
     atom:   12    charge:    3.1915    magn:    1.4074    constr:    0.0000
     atom:   13    charge:    3.1918    magn:    1.4063    constr:    0.0000
     atom:   14    charge:    3.2410    magn:    1.3603    constr:    0.0000
     atom:   15    charge:    3.2415    magn:    1.3597    constr:    0.0000
     atom:   16    charge:    3.1921    magn:    1.4061    constr:    0.0000
     atom:   17    charge:    3.1929    magn:    1.4056    constr:    0.0000
     atom:   18    charge:    3.2410    magn:    1.3603    constr:    0.0000
     atom:   19    charge:    3.2421    magn:    1.3598    constr:    0.0000
     atom:   20    charge:    3.1921    magn:    1.4061    constr:    0.0000
     atom:   21    charge:    3.1929    magn:    1.4056    constr:    0.0000
     atom:   22    charge:    3.2409    magn:    1.3603    constr:    0.0000
     atom:   23    charge:    3.2421    magn:    1.3598    constr:    0.0000
     atom:   24    charge:    3.1922    magn:    1.4060    constr:    0.0000
     atom:   25    charge:    3.1923    magn:    1.4059    constr:    0.0000
     atom:   26    charge:    3.2409    magn:    1.3603    constr:    0.0000
     atom:   27    charge:    3.2412    magn:    1.3601    constr:    0.0000
     atom:   28    charge:    3.1922    magn:    1.4060    constr:    0.0000
     atom:   29    charge:    3.1928    magn:    1.4056    constr:    0.0000
     atom:   30    charge:    3.2410    magn:    1.3603    constr:    0.0000
     atom:   31    charge:    3.2410    magn:    1.3602    constr:    0.0000
     atom:   32    charge:    3.1921    magn:    1.4061    constr:    0.0000
     atom:   33    charge:    3.1923    magn:    1.4060    constr:    0.0000
     atom:   34    charge:    3.2410    magn:    1.3603    constr:    0.0000
     atom:   35    charge:    3.2412    magn:    1.3601    constr:    0.0000
     atom:   36    charge:    3.1921    magn:    1.4061    constr:    0.0000
     atom:   37    charge:    1.9846    magn:    1.2681    constr:    0.0000

     total cpu time spent up to now is      177.0 secs

     total energy              =   -2914.19227149 Ry
     Harris-Foulkes estimate   =   -2916.84509499 Ry
     estimated scf accuracy    <      19.12280121 Ry

     total magnetization       =    75.61 Bohr mag/cell
     absolute magnetization    =    75.64 Bohr mag/cell

     iteration #  2     ecut=    44.10 Ry     beta=0.10
     Davidson diagonalization with overlap
     ethr =  5.79E-03,  avg # of iterations =  1.3

     negative rho (up, down):  3.209E-03 1.910E-03
 
     Adding external electric field

     Computed dipole along edir(3) : 
        Dipole                0.0243 Ry au,          0.0616 Debye
        Dipole field          0.0000 Ry au
 
        Potential amp.       -0.0020 Ry
        Total length         34.6232 bohr
 
 
     Adding external electric field

     Computed dipole along edir(3) : 
        Dipole                0.0243 Ry au,          0.0616 Debye
        Dipole field          0.0000 Ry au
 
        Potential amp.       -0.0020 Ry
        Total length         34.6232 bohr
 
 
     Magnetic moment per site:
     atom:    1    charge:    3.2197    magn:    1.3736    constr:    0.0000
     atom:    2    charge:    3.2177    magn:    1.3630    constr:    0.0000
     atom:    3    charge:    3.2174    magn:    1.3634    constr:    0.0000
     atom:    4    charge:    3.2163    magn:    1.3773    constr:    0.0000
     atom:    5    charge:    3.2197    magn:    1.3736    constr:    0.0000
     atom:    6    charge:    3.2177    magn:    1.3593    constr:    0.0000
     atom:    7    charge:    3.2174    magn:    1.3634    constr:    0.0000
     atom:    8    charge:    3.2161    magn:    1.3686    constr:    0.0000
     atom:    9    charge:    3.2196    magn:    1.3735    constr:    0.0000
     atom:   10    charge:    3.2177    magn:    1.3630    constr:    0.0000
     atom:   11    charge:    3.2184    magn:    1.3622    constr:    0.0000
     atom:   12    charge:    3.2163    magn:    1.3773    constr:    0.0000
     atom:   13    charge:    3.2196    magn:    1.3735    constr:    0.0000
     atom:   14    charge:    3.2199    magn:    1.3615    constr:    0.0000
     atom:   15    charge:    3.2184    magn:    1.3622    constr:    0.0000
     atom:   16    charge:    3.2187    magn:    1.3742    constr:    0.0000
     atom:   17    charge:    3.2197    magn:    1.3736    constr:    0.0000
     atom:   18    charge:    3.2199    magn:    1.3615    constr:    0.0000
     atom:   19    charge:    3.2174    magn:    1.3634    constr:    0.0000
     atom:   20    charge:    3.2187    magn:    1.3742    constr:    0.0000
     atom:   21    charge:    3.2197    magn:    1.3736    constr:    0.0000
     atom:   22    charge:    3.2194    magn:    1.3618    constr:    0.0000
     atom:   23    charge:    3.2174    magn:    1.3634    constr:    0.0000
     atom:   24    charge:    3.2182    magn:    1.3747    constr:    0.0000
     atom:   25    charge:    3.2203    magn:    1.3728    constr:    0.0000
     atom:   26    charge:    3.2194    magn:    1.3618    constr:    0.0000
     atom:   27    charge:    3.2196    magn:    1.3617    constr:    0.0000
     atom:   28    charge:    3.2182    magn:    1.3747    constr:    0.0000
     atom:   29    charge:    3.2206    magn:    1.3726    constr:    0.0000
     atom:   30    charge:    3.2199    magn:    1.3615    constr:    0.0000
     atom:   31    charge:    3.2198    magn:    1.3615    constr:    0.0000
     atom:   32    charge:    3.2187    magn:    1.3742    constr:    0.0000
     atom:   33    charge:    3.2203    magn:    1.3728    constr:    0.0000
     atom:   34    charge:    3.2199    magn:    1.3615    constr:    0.0000
     atom:   35    charge:    3.2196    magn:    1.3617    constr:    0.0000
     atom:   36    charge:    3.2187    magn:    1.3742    constr:    0.0000
     atom:   37    charge:    1.9942    magn:    1.2417    constr:    0.0000

     total cpu time spent up to now is      264.5 secs

     total energy              =   -2914.77979222 Ry
     Harris-Foulkes estimate   =   -2918.41821448 Ry
     estimated scf accuracy    <      64.79688635 Ry

     total magnetization       =    75.97 Bohr mag/cell
     absolute magnetization    =    76.19 Bohr mag/cell

     iteration #  3     ecut=    44.10 Ry     beta=0.10
     Davidson diagonalization with overlap
     ethr =  5.79E-03,  avg # of iterations =  1.0

     negative rho (up, down):  3.492E-03 2.323E-03
 
     Adding external electric field

     Computed dipole along edir(3) : 
        Dipole               -0.9500 Ry au,         -2.4146 Debye
        Dipole field         -0.0012 Ry au
 
        Potential amp.        0.0802 Ry
        Total length         34.6232 bohr
 
 
     Adding external electric field

     Computed dipole along edir(3) : 
        Dipole               -0.9500 Ry au,         -2.4146 Debye
        Dipole field         -0.0012 Ry au
 
        Potential amp.        0.0802 Ry
        Total length         34.6232 bohr
 
 
     Magnetic moment per site:
     atom:    1    charge:    3.2233    magn:    1.3481    constr:    0.0000
     atom:    2    charge:    3.2162    magn:    1.3341    constr:    0.0000
     atom:    3    charge:    3.2168    magn:    1.3338    constr:    0.0000
     atom:    4    charge:    3.2295    magn:    1.3444    constr:    0.0000
     atom:    5    charge:    3.2233    magn:    1.3481    constr:    0.0000
     atom:    6    charge:    3.2186    magn:    1.3271    constr:    0.0000
     atom:    7    charge:    3.2168    magn:    1.3339    constr:    0.0000
     atom:    8    charge:    3.2182    magn:    1.3428    constr:    0.0000
     atom:    9    charge:    3.2230    magn:    1.3484    constr:    0.0000
     atom:   10    charge:    3.2162    magn:    1.3341    constr:    0.0000
     atom:   11    charge:    3.2154    magn:    1.3341    constr:    0.0000
     atom:   12    charge:    3.2295    magn:    1.3444    constr:    0.0000
     atom:   13    charge:    3.2229    magn:    1.3484    constr:    0.0000
     atom:   14    charge:    3.2106    magn:    1.3387    constr:    0.0000
     atom:   15    charge:    3.2154    magn:    1.3341    constr:    0.0000
     atom:   16    charge:    3.2267    magn:    1.3449    constr:    0.0000
     atom:   17    charge:    3.2233    magn:    1.3481    constr:    0.0000
     atom:   18    charge:    3.2106    magn:    1.3387    constr:    0.0000
     atom:   19    charge:    3.2168    magn:    1.3339    constr:    0.0000
     atom:   20    charge:    3.2267    magn:    1.3449    constr:    0.0000
     atom:   21    charge:    3.2233    magn:    1.3481    constr:    0.0000
     atom:   22    charge:    3.2113    magn:    1.3380    constr:    0.0000
     atom:   23    charge:    3.2168    magn:    1.3339    constr:    0.0000
     atom:   24    charge:    3.2268    magn:    1.3450    constr:    0.0000
     atom:   25    charge:    3.2186    magn:    1.3522    constr:    0.0000
     atom:   26    charge:    3.2113    magn:    1.3380    constr:    0.0000
     atom:   27    charge:    3.2111    magn:    1.3382    constr:    0.0000
     atom:   28    charge:    3.2268    magn:    1.3450    constr:    0.0000
     atom:   29    charge:    3.2178    magn:    1.3530    constr:    0.0000
     atom:   30    charge:    3.2106    magn:    1.3387    constr:    0.0000
     atom:   31    charge:    3.2102    magn:    1.3389    constr:    0.0000
     atom:   32    charge:    3.2267    magn:    1.3449    constr:    0.0000
     atom:   33    charge:    3.2186    magn:    1.3522    constr:    0.0000
     atom:   34    charge:    3.2106    magn:    1.3387    constr:    0.0000
     atom:   35    charge:    3.2111    magn:    1.3382    constr:    0.0000
     atom:   36    charge:    3.2267    magn:    1.3449    constr:    0.0000
     atom:   37    charge:    2.0093    magn:    1.1880    constr:    0.0000

     total cpu time spent up to now is      350.7 secs

     total energy              =   -2916.33281593 Ry
     Harris-Foulkes estimate   =   -2916.41840908 Ry
     estimated scf accuracy    <       3.74482028 Ry

     total magnetization       =    77.17 Bohr mag/cell
     absolute magnetization    =    77.34 Bohr mag/cell

     iteration #  4     ecut=    44.10 Ry     beta=0.10
     Davidson diagonalization with overlap
     ethr =  1.13E-03,  avg # of iterations =  6.3

     negative rho (up, down):  3.289E-03 2.596E-03
 
     Adding external electric field

     Computed dipole along edir(3) : 
        Dipole               -0.1798 Ry au,         -0.4571 Debye
        Dipole field         -0.0002 Ry au
 
        Potential amp.        0.0152 Ry
        Total length         34.6232 bohr
 
 
     Adding external electric field

     Computed dipole along edir(3) : 
        Dipole               -0.1798 Ry au,         -0.4571 Debye
        Dipole field         -0.0002 Ry au
 
        Potential amp.        0.0152 Ry
        Total length         34.6232 bohr
 
 
     Magnetic moment per site:
     atom:    1    charge:    3.2338    magn:    1.3073    constr:    0.0000
     atom:    2    charge:    3.2113    magn:    1.2964    constr:    0.0000
     atom:    3    charge:    3.2106    magn:    1.2976    constr:    0.0000
     atom:    4    charge:    3.2272    magn:    1.3157    constr:    0.0000
     atom:    5    charge:    3.2338    magn:    1.3073    constr:    0.0000
     atom:    6    charge:    3.2140    magn:    1.2873    constr:    0.0000
     atom:    7    charge:    3.2106    magn:    1.2977    constr:    0.0000
     atom:    8    charge:    3.2125    magn:    1.3125    constr:    0.0000
     atom:    9    charge:    3.2339    magn:    1.3073    constr:    0.0000
     atom:   10    charge:    3.2113    magn:    1.2964    constr:    0.0000
     atom:   11    charge:    3.2083    magn:    1.2981    constr:    0.0000
     atom:   12    charge:    3.2272    magn:    1.3158    constr:    0.0000
     atom:   13    charge:    3.2339    magn:    1.3073    constr:    0.0000
     atom:   14    charge:    3.2069    magn:    1.3000    constr:    0.0000
     atom:   15    charge:    3.2083    magn:    1.2981    constr:    0.0000
     atom:   16    charge:    3.2260    magn:    1.3143    constr:    0.0000
     atom:   17    charge:    3.2338    magn:    1.3073    constr:    0.0000
     atom:   18    charge:    3.2069    magn:    1.3000    constr:    0.0000
     atom:   19    charge:    3.2106    magn:    1.2977    constr:    0.0000
     atom:   20    charge:    3.2260    magn:    1.3143    constr:    0.0000
     atom:   21    charge:    3.2338    magn:    1.3073    constr:    0.0000
     atom:   22    charge:    3.2080    magn:    1.2989    constr:    0.0000
     atom:   23    charge:    3.2106    magn:    1.2977    constr:    0.0000
     atom:   24    charge:    3.2261    magn:    1.3144    constr:    0.0000
     atom:   25    charge:    3.2330    magn:    1.3081    constr:    0.0000
     atom:   26    charge:    3.2080    magn:    1.2989    constr:    0.0000
     atom:   27    charge:    3.2053    magn:    1.3015    constr:    0.0000
     atom:   28    charge:    3.2261    magn:    1.3144    constr:    0.0000
     atom:   29    charge:    3.2318    magn:    1.3092    constr:    0.0000
     atom:   30    charge:    3.2069    magn:    1.3000    constr:    0.0000
     atom:   31    charge:    3.2041    magn:    1.3023    constr:    0.0000
     atom:   32    charge:    3.2260    magn:    1.3143    constr:    0.0000
     atom:   33    charge:    3.2330    magn:    1.3081    constr:    0.0000
     atom:   34    charge:    3.2069    magn:    1.3000    constr:    0.0000
     atom:   35    charge:    3.2053    magn:    1.3015    constr:    0.0000
     atom:   36    charge:    3.2260    magn:    1.3143    constr:    0.0000
     atom:   37    charge:    2.0275    magn:    1.1147    constr:    0.0000

     total cpu time spent up to now is      460.7 secs

     total energy              =   -2916.27245529 Ry
     Harris-Foulkes estimate   =   -2916.86579795 Ry
     estimated scf accuracy    <      30.41322787 Ry

     total magnetization       =    76.64 Bohr mag/cell
     absolute magnetization    =    76.79 Bohr mag/cell

     iteration #  5     ecut=    44.10 Ry     beta=0.10
     Davidson diagonalization with overlap
     ethr =  1.13E-03,  avg # of iterations =  5.2

     negative rho (up, down):  3.730E-03 3.051E-03
 
     Adding external electric field

     Computed dipole along edir(3) : 
        Dipole               -0.5750 Ry au,         -1.4614 Debye
        Dipole field         -0.0007 Ry au
 
        Potential amp.        0.0485 Ry
        Total length         34.6232 bohr
 
 
     Adding external electric field

     Computed dipole along edir(3) : 
        Dipole               -0.5750 Ry au,         -1.4614 Debye
        Dipole field         -0.0007 Ry au
 
        Potential amp.        0.0485 Ry
        Total length         34.6232 bohr
 
 
     Magnetic moment per site:
     atom:    1    charge:    3.2312    magn:    1.2941    constr:    0.0000
     atom:    2    charge:    3.2059    magn:    1.2818    constr:    0.0000
     atom:    3    charge:    3.2064    magn:    1.2823    constr:    0.0000
     atom:    4    charge:    3.2250    magn:    1.3032    constr:    0.0000
     atom:    5    charge:    3.2312    magn:    1.2941    constr:    0.0000
     atom:    6    charge:    3.2062    magn:    1.2736    constr:    0.0000
     atom:    7    charge:    3.2064    magn:    1.2823    constr:    0.0000
     atom:    8    charge:    3.2089    magn:    1.2993    constr:    0.0000
     atom:    9    charge:    3.2317    magn:    1.2937    constr:    0.0000
     atom:   10    charge:    3.2059    magn:    1.2818    constr:    0.0000
     atom:   11    charge:    3.2059    magn:    1.2812    constr:    0.0000
     atom:   12    charge:    3.2250    magn:    1.3032    constr:    0.0000
     atom:   13    charge:    3.2317    magn:    1.2937    constr:    0.0000
     atom:   14    charge:    3.2074    magn:    1.2808    constr:    0.0000
     atom:   15    charge:    3.2059    magn:    1.2812    constr:    0.0000
     atom:   16    charge:    3.2312    magn:    1.2945    constr:    0.0000
     atom:   17    charge:    3.2312    magn:    1.2941    constr:    0.0000
     atom:   18    charge:    3.2074    magn:    1.2808    constr:    0.0000
     atom:   19    charge:    3.2064    magn:    1.2823    constr:    0.0000
     atom:   20    charge:    3.2312    magn:    1.2945    constr:    0.0000
     atom:   21    charge:    3.2312    magn:    1.2941    constr:    0.0000
     atom:   22    charge:    3.2075    magn:    1.2804    constr:    0.0000
     atom:   23    charge:    3.2064    magn:    1.2823    constr:    0.0000
     atom:   24    charge:    3.2302    magn:    1.2957    constr:    0.0000
     atom:   25    charge:    3.2348    magn:    1.2910    constr:    0.0000
     atom:   26    charge:    3.2075    magn:    1.2804    constr:    0.0000
     atom:   27    charge:    3.2080    magn:    1.2806    constr:    0.0000
     atom:   28    charge:    3.2302    magn:    1.2956    constr:    0.0000
     atom:   29    charge:    3.2348    magn:    1.2912    constr:    0.0000
     atom:   30    charge:    3.2074    magn:    1.2808    constr:    0.0000
     atom:   31    charge:    3.2076    magn:    1.2807    constr:    0.0000
     atom:   32    charge:    3.2312    magn:    1.2945    constr:    0.0000
     atom:   33    charge:    3.2348    magn:    1.2910    constr:    0.0000
     atom:   34    charge:    3.2074    magn:    1.2808    constr:    0.0000
     atom:   35    charge:    3.2080    magn:    1.2806    constr:    0.0000
     atom:   36    charge:    3.2312    magn:    1.2945    constr:    0.0000
     atom:   37    charge:    2.0342    magn:    1.0805    constr:    0.0000

     total cpu time spent up to now is      563.9 secs

     total energy              =   -2916.67270896 Ry
     Harris-Foulkes estimate   =   -2916.82108759 Ry
     estimated scf accuracy    <       8.12232709 Ry

     total magnetization       =    76.96 Bohr mag/cell
     absolute magnetization    =    77.19 Bohr mag/cell

     iteration #  6     ecut=    44.10 Ry     beta=0.10
     Davidson diagonalization with overlap
     ethr =  1.13E-03,  avg # of iterations =  1.3

     negative rho (up, down):  3.121E-03 3.103E-03
 
     Adding external electric field

     Computed dipole along edir(3) : 
        Dipole               -0.5501 Ry au,         -1.3982 Debye
        Dipole field         -0.0007 Ry au
 
        Potential amp.        0.0464 Ry
        Total length         34.6232 bohr
 
 
     Adding external electric field

     Computed dipole along edir(3) : 
        Dipole               -0.5501 Ry au,         -1.3982 Debye
        Dipole field         -0.0007 Ry au
 
        Potential amp.        0.0464 Ry
        Total length         34.6232 bohr
 
 
     Magnetic moment per site:
     atom:    1    charge:    3.2320    magn:    1.2505    constr:    0.0000
     atom:    2    charge:    3.2037    magn:    1.2359    constr:    0.0000
     atom:    3    charge:    3.2002    magn:    1.2403    constr:    0.0000
     atom:    4    charge:    3.2262    magn:    1.2635    constr:    0.0000
     atom:    5    charge:    3.2320    magn:    1.2505    constr:    0.0000
     atom:    6    charge:    3.2009    magn:    1.2273    constr:    0.0000
     atom:    7    charge:    3.2002    magn:    1.2403    constr:    0.0000
     atom:    8    charge:    3.2041    magn:    1.2618    constr:    0.0000
     atom:    9    charge:    3.2315    magn:    1.2509    constr:    0.0000
     atom:   10    charge:    3.2037    magn:    1.2359    constr:    0.0000
     atom:   11    charge:    3.2039    magn:    1.2350    constr:    0.0000
     atom:   12    charge:    3.2262    magn:    1.2635    constr:    0.0000
     atom:   13    charge:    3.2315    magn:    1.2509    constr:    0.0000
     atom:   14    charge:    3.2051    magn:    1.2348    constr:    0.0000
     atom:   15    charge:    3.2039    magn:    1.2350    constr:    0.0000
     atom:   16    charge:    3.2287    magn:    1.2544    constr:    0.0000
     atom:   17    charge:    3.2320    magn:    1.2504    constr:    0.0000
     atom:   18    charge:    3.2051    magn:    1.2349    constr:    0.0000
     atom:   19    charge:    3.2002    magn:    1.2403    constr:    0.0000
     atom:   20    charge:    3.2287    magn:    1.2544    constr:    0.0000
     atom:   21    charge:    3.2320    magn:    1.2504    constr:    0.0000
     atom:   22    charge:    3.2032    magn:    1.2360    constr:    0.0000
     atom:   23    charge:    3.2002    magn:    1.2403    constr:    0.0000
     atom:   24    charge:    3.2269    magn:    1.2569    constr:    0.0000
     atom:   25    charge:    3.2249    magn:    1.2562    constr:    0.0000
     atom:   26    charge:    3.2032    magn:    1.2360    constr:    0.0000
     atom:   27    charge:    3.2046    magn:    1.2358    constr:    0.0000
     atom:   28    charge:    3.2269    magn:    1.2569    constr:    0.0000
     atom:   29    charge:    3.2261    magn:    1.2554    constr:    0.0000
     atom:   30    charge:    3.2051    magn:    1.2349    constr:    0.0000
     atom:   31    charge:    3.2059    magn:    1.2345    constr:    0.0000
     atom:   32    charge:    3.2288    magn:    1.2544    constr:    0.0000
     atom:   33    charge:    3.2249    magn:    1.2562    constr:    0.0000
     atom:   34    charge:    3.2051    magn:    1.2349    constr:    0.0000
     atom:   35    charge:    3.2046    magn:    1.2358    constr:    0.0000
     atom:   36    charge:    3.2288    magn:    1.2544    constr:    0.0000
     atom:   37    charge:    2.0431    magn:    0.9927    constr:    0.0000

     total cpu time spent up to now is      651.4 secs

     total energy              =   -2917.08280208 Ry
     Harris-Foulkes estimate   =   -2916.85807175 Ry
     estimated scf accuracy    <       1.92529670 Ry

     total magnetization       =    76.82 Bohr mag/cell
     absolute magnetization    =    77.10 Bohr mag/cell

     iteration #  7     ecut=    44.10 Ry     beta=0.10
     Davidson diagonalization with overlap
     ethr =  5.83E-04,  avg # of iterations =  2.0

     negative rho (up, down):  3.140E-03 3.563E-03
 
     Adding external electric field

     Computed dipole along edir(3) : 
        Dipole               -0.5650 Ry au,         -1.4361 Debye
        Dipole field         -0.0007 Ry au
 
        Potential amp.        0.0477 Ry
        Total length         34.6232 bohr
 
 
     Adding external electric field

     Computed dipole along edir(3) : 
        Dipole               -0.5650 Ry au,         -1.4361 Debye
        Dipole field         -0.0007 Ry au
 
        Potential amp.        0.0477 Ry
        Total length         34.6232 bohr
 
 
     Magnetic moment per site:
     atom:    1    charge:    3.2274    magn:    1.2305    constr:    0.0000
     atom:    2    charge:    3.2013    magn:    1.2125    constr:    0.0000
     atom:    3    charge:    3.2016    magn:    1.2145    constr:    0.0000
     atom:    4    charge:    3.2253    magn:    1.2430    constr:    0.0000
     atom:    5    charge:    3.2274    magn:    1.2305    constr:    0.0000
     atom:    6    charge:    3.2020    magn:    1.1999    constr:    0.0000
     atom:    7    charge:    3.2016    magn:    1.2145    constr:    0.0000
     atom:    8    charge:    3.2035    magn:    1.2400    constr:    0.0000
     atom:    9    charge:    3.2262    magn:    1.2315    constr:    0.0000
     atom:   10    charge:    3.2013    magn:    1.2125    constr:    0.0000
     atom:   11    charge:    3.2012    magn:    1.2118    constr:    0.0000
     atom:   12    charge:    3.2253    magn:    1.2430    constr:    0.0000
     atom:   13    charge:    3.2262    magn:    1.2315    constr:    0.0000
     atom:   14    charge:    3.2014    magn:    1.2124    constr:    0.0000
     atom:   15    charge:    3.2012    magn:    1.2118    constr:    0.0000
     atom:   16    charge:    3.2264    magn:    1.2332    constr:    0.0000
     atom:   17    charge:    3.2274    magn:    1.2305    constr:    0.0000
     atom:   18    charge:    3.2014    magn:    1.2124    constr:    0.0000
     atom:   19    charge:    3.2016    magn:    1.2145    constr:    0.0000
     atom:   20    charge:    3.2264    magn:    1.2332    constr:    0.0000
     atom:   21    charge:    3.2274    magn:    1.2305    constr:    0.0000
     atom:   22    charge:    3.2017    magn:    1.2118    constr:    0.0000
     atom:   23    charge:    3.2016    magn:    1.2145    constr:    0.0000
     atom:   24    charge:    3.2273    magn:    1.2336    constr:    0.0000
     atom:   25    charge:    3.2288    magn:    1.2292    constr:    0.0000
     atom:   26    charge:    3.2017    magn:    1.2118    constr:    0.0000
     atom:   27    charge:    3.2014    magn:    1.2131    constr:    0.0000
     atom:   28    charge:    3.2273    magn:    1.2336    constr:    0.0000
     atom:   29    charge:    3.2276    magn:    1.2305    constr:    0.0000
     atom:   30    charge:    3.2014    magn:    1.2124    constr:    0.0000
     atom:   31    charge:    3.2006    magn:    1.2133    constr:    0.0000
     atom:   32    charge:    3.2264    magn:    1.2332    constr:    0.0000
     atom:   33    charge:    3.2288    magn:    1.2292    constr:    0.0000
     atom:   34    charge:    3.2014    magn:    1.2124    constr:    0.0000
     atom:   35    charge:    3.2014    magn:    1.2131    constr:    0.0000
     atom:   36    charge:    3.2264    magn:    1.2332    constr:    0.0000
     atom:   37    charge:    2.0451    magn:    0.9451    constr:    0.0000

     total cpu time spent up to now is      741.2 secs

     total energy              =   -2917.24356926 Ry
     Harris-Foulkes estimate   =   -2917.15069747 Ry
     estimated scf accuracy    <       1.40680975 Ry

     total magnetization       =    75.48 Bohr mag/cell
     absolute magnetization    =    75.95 Bohr mag/cell

     iteration #  8     ecut=    44.10 Ry     beta=0.10
     Davidson diagonalization with overlap
     ethr =  4.26E-04,  avg # of iterations =  3.3

     negative rho (up, down):  3.213E-03 4.011E-03
 
     Adding external electric field

     Computed dipole along edir(3) : 
        Dipole               -0.5083 Ry au,         -1.2919 Debye
        Dipole field         -0.0006 Ry au
 
        Potential amp.        0.0429 Ry
        Total length         34.6232 bohr
 
 
     Adding external electric field

     Computed dipole along edir(3) : 
        Dipole               -0.5083 Ry au,         -1.2919 Debye
        Dipole field         -0.0006 Ry au
 
        Potential amp.        0.0429 Ry
        Total length         34.6232 bohr
 
 
     Magnetic moment per site:
     atom:    1    charge:    3.2221    magn:    1.1863    constr:    0.0000
     atom:    2    charge:    3.1986    magn:    1.1645    constr:    0.0000
     atom:    3    charge:    3.2012    magn:    1.1655    constr:    0.0000
     atom:    4    charge:    3.2194    magn:    1.2049    constr:    0.0000
     atom:    5    charge:    3.2221    magn:    1.1863    constr:    0.0000
     atom:    6    charge:    3.1997    magn:    1.1486    constr:    0.0000
     atom:    7    charge:    3.2012    magn:    1.1655    constr:    0.0000
     atom:    8    charge:    3.1968    magn:    1.1990    constr:    0.0000
     atom:    9    charge:    3.2251    magn:    1.1837    constr:    0.0000
     atom:   10    charge:    3.1986    magn:    1.1645    constr:    0.0000
     atom:   11    charge:    3.1978    magn:    1.1641    constr:    0.0000
     atom:   12    charge:    3.2194    magn:    1.2049    constr:    0.0000
     atom:   13    charge:    3.2252    magn:    1.1837    constr:    0.0000
     atom:   14    charge:    3.1966    magn:    1.1659    constr:    0.0000
     atom:   15    charge:    3.1978    magn:    1.1641    constr:    0.0000
     atom:   16    charge:    3.2263    magn:    1.1854    constr:    0.0000
     atom:   17    charge:    3.2221    magn:    1.1863    constr:    0.0000
     atom:   18    charge:    3.1966    magn:    1.1659    constr:    0.0000
     atom:   19    charge:    3.2012    magn:    1.1656    constr:    0.0000
     atom:   20    charge:    3.2263    magn:    1.1854    constr:    0.0000
     atom:   21    charge:    3.2221    magn:    1.1863    constr:    0.0000
     atom:   22    charge:    3.1970    magn:    1.1652    constr:    0.0000
     atom:   23    charge:    3.2012    magn:    1.1656    constr:    0.0000
     atom:   24    charge:    3.2228    magn:    1.1900    constr:    0.0000
     atom:   25    charge:    3.2224    magn:    1.1859    constr:    0.0000
     atom:   26    charge:    3.1970    magn:    1.1652    constr:    0.0000
     atom:   27    charge:    3.1984    magn:    1.1653    constr:    0.0000
     atom:   28    charge:    3.2228    magn:    1.1900    constr:    0.0000
     atom:   29    charge:    3.2246    magn:    1.1847    constr:    0.0000
     atom:   30    charge:    3.1966    magn:    1.1659    constr:    0.0000
     atom:   31    charge:    3.1982    magn:    1.1652    constr:    0.0000
     atom:   32    charge:    3.2263    magn:    1.1854    constr:    0.0000
     atom:   33    charge:    3.2224    magn:    1.1859    constr:    0.0000
     atom:   34    charge:    3.1966    magn:    1.1659    constr:    0.0000
     atom:   35    charge:    3.1984    magn:    1.1653    constr:    0.0000
     atom:   36    charge:    3.2263    magn:    1.1854    constr:    0.0000
     atom:   37    charge:    2.0438    magn:    0.8469    constr:    0.0000

     total cpu time spent up to now is      836.9 secs

     total energy              =   -2917.51624776 Ry
     Harris-Foulkes estimate   =   -2917.27650618 Ry
     estimated scf accuracy    <       0.53582970 Ry

     total magnetization       =    74.76 Bohr mag/cell
     absolute magnetization    =    75.39 Bohr mag/cell

     iteration #  9     ecut=    44.10 Ry     beta=0.10
     Davidson diagonalization with overlap
     ethr =  1.62E-04,  avg # of iterations = 10.1

     negative rho (up, down):  8.457E-03 6.551E-03
 
     Adding external electric field

     Computed dipole along edir(3) : 
        Dipole               -0.4658 Ry au,         -1.1839 Debye
        Dipole field         -0.0006 Ry au
 
        Potential amp.        0.0393 Ry
        Total length         34.6232 bohr
 
 
     Adding external electric field

     Computed dipole along edir(3) : 
        Dipole               -0.4658 Ry au,         -1.1839 Debye
        Dipole field         -0.0006 Ry au
 
        Potential amp.        0.0393 Ry
        Total length         34.6232 bohr
 
 
     Magnetic moment per site:
     atom:    1    charge:    3.2141    magn:    1.0821    constr:    0.0000
     atom:    2    charge:    3.1914    magn:    1.0551    constr:    0.0000
     atom:    3    charge:    3.1959    magn:    1.0563    constr:    0.0000
     atom:    4    charge:    3.2222    magn:    1.1036    constr:    0.0000
     atom:    5    charge:    3.2141    magn:    1.0821    constr:    0.0000
     atom:    6    charge:    3.1904    magn:    1.0334    constr:    0.0000
     atom:    7    charge:    3.1959    magn:    1.0563    constr:    0.0000
     atom:    8    charge:    3.1853    magn:    1.1015    constr:    0.0000
     atom:    9    charge:    3.2132    magn:    1.0823    constr:    0.0000
     atom:   10    charge:    3.1914    magn:    1.0551    constr:    0.0000
     atom:   11    charge:    3.1930    magn:    1.0523    constr:    0.0000
     atom:   12    charge:    3.2222    magn:    1.1036    constr:    0.0000
     atom:   13    charge:    3.2132    magn:    1.0823    constr:    0.0000
     atom:   14    charge:    3.1920    magn:    1.0548    constr:    0.0000
     atom:   15    charge:    3.1930    magn:    1.0523    constr:    0.0000
     atom:   16    charge:    3.2175    magn:    1.0825    constr:    0.0000
     atom:   17    charge:    3.2141    magn:    1.0821    constr:    0.0000
     atom:   18    charge:    3.1920    magn:    1.0548    constr:    0.0000
     atom:   19    charge:    3.1959    magn:    1.0563    constr:    0.0000
     atom:   20    charge:    3.2175    magn:    1.0825    constr:    0.0000
     atom:   21    charge:    3.2141    magn:    1.0821    constr:    0.0000
     atom:   22    charge:    3.1922    magn:    1.0538    constr:    0.0000
     atom:   23    charge:    3.1959    magn:    1.0563    constr:    0.0000
     atom:   24    charge:    3.2177    magn:    1.0855    constr:    0.0000
     atom:   25    charge:    3.2139    magn:    1.0816    constr:    0.0000
     atom:   26    charge:    3.1922    magn:    1.0538    constr:    0.0000
     atom:   27    charge:    3.1941    magn:    1.0537    constr:    0.0000
     atom:   28    charge:    3.2177    magn:    1.0855    constr:    0.0000
     atom:   29    charge:    3.2131    magn:    1.0835    constr:    0.0000
     atom:   30    charge:    3.1920    magn:    1.0548    constr:    0.0000
     atom:   31    charge:    3.1939    magn:    1.0538    constr:    0.0000
     atom:   32    charge:    3.2175    magn:    1.0825    constr:    0.0000
     atom:   33    charge:    3.2139    magn:    1.0816    constr:    0.0000
     atom:   34    charge:    3.1920    magn:    1.0548    constr:    0.0000
     atom:   35    charge:    3.1941    magn:    1.0537    constr:    0.0000
     atom:   36    charge:    3.2175    magn:    1.0825    constr:    0.0000
     atom:   37    charge:    2.0391    magn:    0.6184    constr:    0.0000

     total cpu time spent up to now is      963.7 secs

     total energy              =   -2917.89210326 Ry
     Harris-Foulkes estimate   =   -2917.54529957 Ry
     estimated scf accuracy    <       0.75337615 Ry

     total magnetization       =    73.26 Bohr mag/cell
     absolute magnetization    =    74.43 Bohr mag/cell

     iteration # 10     ecut=    44.10 Ry     beta=0.10
     Davidson diagonalization with overlap
     ethr =  1.62E-04,  avg # of iterations =  2.1

     negative rho (up, down):  8.510E-03 6.857E-03
 
     Adding external electric field

     Computed dipole along edir(3) : 
        Dipole               -0.5117 Ry au,         -1.3007 Debye
        Dipole field         -0.0006 Ry au
 
        Potential amp.        0.0432 Ry
        Total length         34.6232 bohr
 
 
     Adding external electric field

     Computed dipole along edir(3) : 
        Dipole               -0.5117 Ry au,         -1.3007 Debye
        Dipole field         -0.0006 Ry au
 
        Potential amp.        0.0432 Ry
        Total length         34.6232 bohr
 
 
     Magnetic moment per site:
     atom:    1    charge:    3.2144    magn:    1.0663    constr:    0.0000
     atom:    2    charge:    3.1943    magn:    1.0358    constr:    0.0000
     atom:    3    charge:    3.1959    magn:    1.0391    constr:    0.0000
     atom:    4    charge:    3.2210    magn:    1.0897    constr:    0.0000
     atom:    5    charge:    3.2144    magn:    1.0663    constr:    0.0000
     atom:    6    charge:    3.1938    magn:    1.0120    constr:    0.0000
     atom:    7    charge:    3.1959    magn:    1.0391    constr:    0.0000
     atom:    8    charge:    3.1873    magn:    1.0837    constr:    0.0000
     atom:    9    charge:    3.2141    magn:    1.0657    constr:    0.0000
     atom:   10    charge:    3.1943    magn:    1.0358    constr:    0.0000
     atom:   11    charge:    3.1944    magn:    1.0339    constr:    0.0000
     atom:   12    charge:    3.2210    magn:    1.0897    constr:    0.0000
     atom:   13    charge:    3.2141    magn:    1.0657    constr:    0.0000
     atom:   14    charge:    3.1945    magn:    1.0360    constr:    0.0000
     atom:   15    charge:    3.1944    magn:    1.0339    constr:    0.0000
     atom:   16    charge:    3.2174    magn:    1.0662    constr:    0.0000
     atom:   17    charge:    3.2144    magn:    1.0663    constr:    0.0000
     atom:   18    charge:    3.1945    magn:    1.0360    constr:    0.0000
     atom:   19    charge:    3.1959    magn:    1.0391    constr:    0.0000
     atom:   20    charge:    3.2174    magn:    1.0662    constr:    0.0000
     atom:   21    charge:    3.2144    magn:    1.0663    constr:    0.0000
     atom:   22    charge:    3.1943    magn:    1.0354    constr:    0.0000
     atom:   23    charge:    3.1959    magn:    1.0391    constr:    0.0000
     atom:   24    charge:    3.2194    magn:    1.0681    constr:    0.0000
     atom:   25    charge:    3.2143    magn:    1.0656    constr:    0.0000
     atom:   26    charge:    3.1943    magn:    1.0354    constr:    0.0000
     atom:   27    charge:    3.1945    magn:    1.0362    constr:    0.0000
     atom:   28    charge:    3.2194    magn:    1.0680    constr:    0.0000
     atom:   29    charge:    3.2139    magn:    1.0673    constr:    0.0000
     atom:   30    charge:    3.1945    magn:    1.0360    constr:    0.0000
     atom:   31    charge:    3.1941    magn:    1.0368    constr:    0.0000
     atom:   32    charge:    3.2174    magn:    1.0662    constr:    0.0000
     atom:   33    charge:    3.2143    magn:    1.0656    constr:    0.0000
     atom:   34    charge:    3.1945    magn:    1.0360    constr:    0.0000
     atom:   35    charge:    3.1945    magn:    1.0362    constr:    0.0000
     atom:   36    charge:    3.2174    magn:    1.0662    constr:    0.0000
     atom:   37    charge:    2.0358    magn:    0.5797    constr:    0.0000

     total cpu time spent up to now is     1054.6 secs

     total energy              =   -2917.97830712 Ry
     Harris-Foulkes estimate   =   -2917.94963296 Ry
     estimated scf accuracy    <       0.36100426 Ry

     total magnetization       =    69.49 Bohr mag/cell
     absolute magnetization    =    72.47 Bohr mag/cell

     iteration # 11     ecut=    44.10 Ry     beta=0.10
     Davidson diagonalization with overlap
     ethr =  1.09E-04,  avg # of iterations =  1.0

     negative rho (up, down):  9.613E-03 7.733E-03
 
     Adding external electric field

     Computed dipole along edir(3) : 
        Dipole               -0.6423 Ry au,         -1.6326 Debye
        Dipole field         -0.0008 Ry au
 
        Potential amp.        0.0542 Ry
        Total length         34.6232 bohr
 
 
     Adding external electric field

     Computed dipole along edir(3) : 
        Dipole               -0.6423 Ry au,         -1.6326 Debye
        Dipole field         -0.0008 Ry au
 
        Potential amp.        0.0542 Ry
        Total length         34.6232 bohr
 
 
     Magnetic moment per site:
     atom:    1    charge:    3.2173    magn:    1.0362    constr:    0.0000
     atom:    2    charge:    3.2002    magn:    1.0000    constr:    0.0000
     atom:    3    charge:    3.2006    magn:    1.0041    constr:    0.0000
     atom:    4    charge:    3.2225    magn:    1.0615    constr:    0.0000
     atom:    5    charge:    3.2173    magn:    1.0362    constr:    0.0000
     atom:    6    charge:    3.1993    magn:    0.9722    constr:    0.0000
     atom:    7    charge:    3.2006    magn:    1.0041    constr:    0.0000
     atom:    8    charge:    3.1887    magn:    1.0506    constr:    0.0000
     atom:    9    charge:    3.2175    magn:    1.0346    constr:    0.0000
     atom:   10    charge:    3.2002    magn:    1.0000    constr:    0.0000
     atom:   11    charge:    3.1999    magn:    0.9982    constr:    0.0000
     atom:   12    charge:    3.2225    magn:    1.0615    constr:    0.0000
     atom:   13    charge:    3.2175    magn:    1.0346    constr:    0.0000
     atom:   14    charge:    3.2006    magn:    1.0006    constr:    0.0000
     atom:   15    charge:    3.1999    magn:    0.9982    constr:    0.0000
     atom:   16    charge:    3.2183    magn:    1.0352    constr:    0.0000
     atom:   17    charge:    3.2172    magn:    1.0362    constr:    0.0000
     atom:   18    charge:    3.2006    magn:    1.0007    constr:    0.0000
     atom:   19    charge:    3.2006    magn:    1.0041    constr:    0.0000
     atom:   20    charge:    3.2183    magn:    1.0352    constr:    0.0000
     atom:   21    charge:    3.2173    magn:    1.0362    constr:    0.0000
     atom:   22    charge:    3.2008    magn:    1.0000    constr:    0.0000
     atom:   23    charge:    3.2006    magn:    1.0041    constr:    0.0000
     atom:   24    charge:    3.2164    magn:    1.0409    constr:    0.0000
     atom:   25    charge:    3.2178    magn:    1.0347    constr:    0.0000
     atom:   26    charge:    3.2008    magn:    1.0000    constr:    0.0000
     atom:   27    charge:    3.1995    magn:    1.0008    constr:    0.0000
     atom:   28    charge:    3.2164    magn:    1.0409    constr:    0.0000
     atom:   29    charge:    3.2171    magn:    1.0367    constr:    0.0000
     atom:   30    charge:    3.2006    magn:    1.0006    constr:    0.0000
     atom:   31    charge:    3.1999    magn:    1.0019    constr:    0.0000
     atom:   32    charge:    3.2183    magn:    1.0352    constr:    0.0000
     atom:   33    charge:    3.2178    magn:    1.0347    constr:    0.0000
     atom:   34    charge:    3.2006    magn:    1.0006    constr:    0.0000
     atom:   35    charge:    3.1995    magn:    1.0008    constr:    0.0000
     atom:   36    charge:    3.2183    magn:    1.0352    constr:    0.0000
     atom:   37    charge:    2.0253    magn:    0.5003    constr:    0.0000

     total cpu time spent up to now is     1141.3 secs

     total energy              =   -2918.02205794 Ry
     Harris-Foulkes estimate   =   -2917.98425640 Ry
     estimated scf accuracy    <       0.16506575 Ry

     total magnetization       =    68.79 Bohr mag/cell
     absolute magnetization    =    72.17 Bohr mag/cell

     iteration # 12     ecut=    44.10 Ry     beta=0.10
     Davidson diagonalization with overlap
     ethr =  5.00E-05,  avg # of iterations =  7.0

     negative rho (up, down):  1.036E-02 8.440E-03
 
     Adding external electric field

     Computed dipole along edir(3) : 
        Dipole               -0.6906 Ry au,         -1.7553 Debye
        Dipole field         -0.0008 Ry au
 
        Potential amp.        0.0583 Ry
        Total length         34.6232 bohr
 
 
     Adding external electric field

     Computed dipole along edir(3) : 
        Dipole               -0.6906 Ry au,         -1.7553 Debye
        Dipole field         -0.0008 Ry au
 
        Potential amp.        0.0583 Ry
        Total length         34.6232 bohr
 
 
     Magnetic moment per site:
     atom:    1    charge:    3.2189    magn:    1.0119    constr:    0.0000
     atom:    2    charge:    3.2034    magn:    0.9719    constr:    0.0000
     atom:    3    charge:    3.2039    magn:    0.9764    constr:    0.0000
     atom:    4    charge:    3.2216    magn:    1.0405    constr:    0.0000
     atom:    5    charge:    3.2189    magn:    1.0119    constr:    0.0000
     atom:    6    charge:    3.2017    magn:    0.9412    constr:    0.0000
     atom:    7    charge:    3.2039    magn:    0.9764    constr:    0.0000
     atom:    8    charge:    3.1870    magn:    1.0258    constr:    0.0000
     atom:    9    charge:    3.2190    magn:    1.0099    constr:    0.0000
     atom:   10    charge:    3.2034    magn:    0.9719    constr:    0.0000
     atom:   11    charge:    3.2023    magn:    0.9707    constr:    0.0000
     atom:   12    charge:    3.2216    magn:    1.0405    constr:    0.0000
     atom:   13    charge:    3.2190    magn:    1.0099    constr:    0.0000
     atom:   14    charge:    3.2035    magn:    0.9732    constr:    0.0000
     atom:   15    charge:    3.2023    magn:    0.9707    constr:    0.0000
     atom:   16    charge:    3.2169    magn:    1.0120    constr:    0.0000
     atom:   17    charge:    3.2189    magn:    1.0119    constr:    0.0000
     atom:   18    charge:    3.2035    magn:    0.9732    constr:    0.0000
     atom:   19    charge:    3.2039    magn:    0.9764    constr:    0.0000
     atom:   20    charge:    3.2169    magn:    1.0120    constr:    0.0000
     atom:   21    charge:    3.2189    magn:    1.0119    constr:    0.0000
     atom:   22    charge:    3.2038    magn:    0.9728    constr:    0.0000
     atom:   23    charge:    3.2039    magn:    0.9764    constr:    0.0000
     atom:   24    charge:    3.2186    magn:    1.0152    constr:    0.0000
     atom:   25    charge:    3.2182    magn:    1.0111    constr:    0.0000
     atom:   26    charge:    3.2038    magn:    0.9728    constr:    0.0000
     atom:   27    charge:    3.2034    magn:    0.9724    constr:    0.0000
     atom:   28    charge:    3.2186    magn:    1.0152    constr:    0.0000
     atom:   29    charge:    3.2173    magn:    1.0133    constr:    0.0000
     atom:   30    charge:    3.2035    magn:    0.9732    constr:    0.0000
     atom:   31    charge:    3.2031    magn:    0.9748    constr:    0.0000
     atom:   32    charge:    3.2169    magn:    1.0120    constr:    0.0000
     atom:   33    charge:    3.2182    magn:    1.0111    constr:    0.0000
     atom:   34    charge:    3.2035    magn:    0.9732    constr:    0.0000
     atom:   35    charge:    3.2034    magn:    0.9724    constr:    0.0000
     atom:   36    charge:    3.2169    magn:    1.0120    constr:    0.0000
     atom:   37    charge:    2.0177    magn:    0.4353    constr:    0.0000

     total cpu time spent up to now is     1254.1 secs

     total energy              =   -2918.05734267 Ry
     Harris-Foulkes estimate   =   -2918.03814654 Ry
     estimated scf accuracy    <       0.16274309 Ry

     total magnetization       =    67.42 Bohr mag/cell
     absolute magnetization    =    71.67 Bohr mag/cell

     iteration # 13     ecut=    44.10 Ry     beta=0.10
     Davidson diagonalization with overlap
     ethr =  4.93E-05,  avg # of iterations =  1.2

     negative rho (up, down):  9.864E-03 8.534E-03
 
     Adding external electric field

     Computed dipole along edir(3) : 
        Dipole               -0.6515 Ry au,         -1.6560 Debye
        Dipole field         -0.0008 Ry au
 
        Potential amp.        0.0550 Ry
        Total length         34.6232 bohr
 
 
     Adding external electric field

     Computed dipole along edir(3) : 
        Dipole               -0.6515 Ry au,         -1.6560 Debye
        Dipole field         -0.0008 Ry au
 
        Potential amp.        0.0550 Ry
        Total length         34.6232 bohr
 
 
     Magnetic moment per site:
     atom:    1    charge:    3.2172    magn:    1.0063    constr:    0.0000
     atom:    2    charge:    3.2029    magn:    0.9641    constr:    0.0000
     atom:    3    charge:    3.2027    magn:    0.9698    constr:    0.0000
     atom:    4    charge:    3.2217    magn:    1.0345    constr:    0.0000
     atom:    5    charge:    3.2172    magn:    1.0063    constr:    0.0000
     atom:    6    charge:    3.2010    magn:    0.9324    constr:    0.0000
     atom:    7    charge:    3.2027    magn:    0.9698    constr:    0.0000
     atom:    8    charge:    3.1859    magn:    1.0194    constr:    0.0000
     atom:    9    charge:    3.2180    magn:    1.0036    constr:    0.0000
     atom:   10    charge:    3.2029    magn:    0.9641    constr:    0.0000
     atom:   11    charge:    3.2020    magn:    0.9631    constr:    0.0000
     atom:   12    charge:    3.2217    magn:    1.0346    constr:    0.0000
     atom:   13    charge:    3.2180    magn:    1.0036    constr:    0.0000
     atom:   14    charge:    3.2030    magn:    0.9655    constr:    0.0000
     atom:   15    charge:    3.2019    magn:    0.9631    constr:    0.0000
     atom:   16    charge:    3.2168    magn:    1.0053    constr:    0.0000
     atom:   17    charge:    3.2172    magn:    1.0063    constr:    0.0000
     atom:   18    charge:    3.2030    magn:    0.9655    constr:    0.0000
     atom:   19    charge:    3.2027    magn:    0.9698    constr:    0.0000
     atom:   20    charge:    3.2168    magn:    1.0053    constr:    0.0000
     atom:   21    charge:    3.2172    magn:    1.0063    constr:    0.0000
     atom:   22    charge:    3.2023    magn:    0.9660    constr:    0.0000
     atom:   23    charge:    3.2027    magn:    0.9698    constr:    0.0000
     atom:   24    charge:    3.2180    magn:    1.0091    constr:    0.0000
     atom:   25    charge:    3.2173    magn:    1.0048    constr:    0.0000
     atom:   26    charge:    3.2023    magn:    0.9660    constr:    0.0000
     atom:   27    charge:    3.2020    magn:    0.9656    constr:    0.0000
     atom:   28    charge:    3.2180    magn:    1.0091    constr:    0.0000
     atom:   29    charge:    3.2171    magn:    1.0064    constr:    0.0000
     atom:   30    charge:    3.2030    magn:    0.9655    constr:    0.0000
     atom:   31    charge:    3.2023    magn:    0.9679    constr:    0.0000
     atom:   32    charge:    3.2168    magn:    1.0053    constr:    0.0000
     atom:   33    charge:    3.2173    magn:    1.0048    constr:    0.0000
     atom:   34    charge:    3.2030    magn:    0.9655    constr:    0.0000
     atom:   35    charge:    3.2020    magn:    0.9656    constr:    0.0000
     atom:   36    charge:    3.2168    magn:    1.0053    constr:    0.0000
     atom:   37    charge:    2.0170    magn:    0.4148    constr:    0.0000

     total cpu time spent up to now is     1341.1 secs

     total energy              =   -2918.06433045 Ry
     Harris-Foulkes estimate   =   -2918.06549797 Ry
     estimated scf accuracy    <       0.11124236 Ry

     total magnetization       =    66.28 Bohr mag/cell
     absolute magnetization    =    71.31 Bohr mag/cell

     iteration # 14     ecut=    44.10 Ry     beta=0.10
     Davidson diagonalization with overlap
     ethr =  3.37E-05,  avg # of iterations =  1.0

     negative rho (up, down):  9.233E-03 8.580E-03
 
     Adding external electric field

     Computed dipole along edir(3) : 
        Dipole               -0.6515 Ry au,         -1.6560 Debye
        Dipole field         -0.0008 Ry au
 
        Potential amp.        0.0550 Ry
        Total length         34.6232 bohr
 
 
     Adding external electric field

     Computed dipole along edir(3) : 
        Dipole               -0.6515 Ry au,         -1.6560 Debye
        Dipole field         -0.0008 Ry au
 
        Potential amp.        0.0550 Ry
        Total length         34.6232 bohr
 
 
     Magnetic moment per site:
     atom:    1    charge:    3.2179    magn:    1.0028    constr:    0.0000
     atom:    2    charge:    3.2027    magn:    0.9593    constr:    0.0000
     atom:    3    charge:    3.2028    magn:    0.9654    constr:    0.0000
     atom:    4    charge:    3.2214    magn:    1.0320    constr:    0.0000
     atom:    5    charge:    3.2178    magn:    1.0028    constr:    0.0000
     atom:    6    charge:    3.2016    magn:    0.9259    constr:    0.0000
     atom:    7    charge:    3.2028    magn:    0.9654    constr:    0.0000
     atom:    8    charge:    3.1868    magn:    1.0146    constr:    0.0000
     atom:    9    charge:    3.2179    magn:    1.0005    constr:    0.0000
     atom:   10    charge:    3.2027    magn:    0.9593    constr:    0.0000
     atom:   11    charge:    3.2018    magn:    0.9586    constr:    0.0000
     atom:   12    charge:    3.2214    magn:    1.0320    constr:    0.0000
     atom:   13    charge:    3.2179    magn:    1.0005    constr:    0.0000
     atom:   14    charge:    3.2029    magn:    0.9606    constr:    0.0000
     atom:   15    charge:    3.2018    magn:    0.9586    constr:    0.0000
     atom:   16    charge:    3.2176    magn:    1.0016    constr:    0.0000
     atom:   17    charge:    3.2179    magn:    1.0028    constr:    0.0000
     atom:   18    charge:    3.2029    magn:    0.9606    constr:    0.0000
     atom:   19    charge:    3.2028    magn:    0.9654    constr:    0.0000
     atom:   20    charge:    3.2176    magn:    1.0016    constr:    0.0000
     atom:   21    charge:    3.2179    magn:    1.0028    constr:    0.0000
     atom:   22    charge:    3.2032    magn:    0.9607    constr:    0.0000
     atom:   23    charge:    3.2028    magn:    0.9654    constr:    0.0000
     atom:   24    charge:    3.2180    magn:    1.0061    constr:    0.0000
     atom:   25    charge:    3.2177    magn:    1.0014    constr:    0.0000
     atom:   26    charge:    3.2032    magn:    0.9607    constr:    0.0000
     atom:   27    charge:    3.2024    magn:    0.9606    constr:    0.0000
     atom:   28    charge:    3.2180    magn:    1.0061    constr:    0.0000
     atom:   29    charge:    3.2163    magn:    1.0040    constr:    0.0000
     atom:   30    charge:    3.2029    magn:    0.9606    constr:    0.0000
     atom:   31    charge:    3.2024    magn:    0.9634    constr:    0.0000
     atom:   32    charge:    3.2175    magn:    1.0016    constr:    0.0000
     atom:   33    charge:    3.2177    magn:    1.0014    constr:    0.0000
     atom:   34    charge:    3.2029    magn:    0.9606    constr:    0.0000
     atom:   35    charge:    3.2024    magn:    0.9606    constr:    0.0000
     atom:   36    charge:    3.2175    magn:    1.0016    constr:    0.0000
     atom:   37    charge:    2.0160    magn:    0.4003    constr:    0.0000

     total cpu time spent up to now is     1427.6 secs

     total energy              =   -2918.07061289 Ry
     Harris-Foulkes estimate   =   -2918.06835521 Ry
     estimated scf accuracy    <       0.01651112 Ry

     total magnetization       =    65.91 Bohr mag/cell
     absolute magnetization    =    71.18 Bohr mag/cell

     iteration # 15     ecut=    44.10 Ry     beta=0.10
     Davidson diagonalization with overlap
     ethr =  5.00E-06,  avg # of iterations =  5.9

     negative rho (up, down):  8.595E-03 8.683E-03
 
     Adding external electric field

     Computed dipole along edir(3) : 
        Dipole               -0.6366 Ry au,         -1.6181 Debye
        Dipole field         -0.0008 Ry au
 
        Potential amp.        0.0537 Ry
        Total length         34.6232 bohr
 
 
     Adding external electric field

     Computed dipole along edir(3) : 
        Dipole               -0.6366 Ry au,         -1.6181 Debye
        Dipole field         -0.0008 Ry au
 
        Potential amp.        0.0537 Ry
        Total length         34.6232 bohr
 
 
     Magnetic moment per site:
     atom:    1    charge:    3.2181    magn:    1.0002    constr:    0.0000
     atom:    2    charge:    3.2029    magn:    0.9534    constr:    0.0000
     atom:    3    charge:    3.2031    magn:    0.9604    constr:    0.0000
     atom:    4    charge:    3.2216    magn:    1.0296    constr:    0.0000
     atom:    5    charge:    3.2180    magn:    1.0002    constr:    0.0000
     atom:    6    charge:    3.2013    magn:    0.9186    constr:    0.0000
     atom:    7    charge:    3.2030    magn:    0.9604    constr:    0.0000
     atom:    8    charge:    3.1870    magn:    1.0096    constr:    0.0000
     atom:    9    charge:    3.2190    magn:    0.9969    constr:    0.0000
     atom:   10    charge:    3.2029    magn:    0.9534    constr:    0.0000
     atom:   11    charge:    3.2023    magn:    0.9531    constr:    0.0000
     atom:   12    charge:    3.2216    magn:    1.0296    constr:    0.0000
     atom:   13    charge:    3.2189    magn:    0.9969    constr:    0.0000
     atom:   14    charge:    3.2032    magn:    0.9546    constr:    0.0000
     atom:   15    charge:    3.2023    magn:    0.9531    constr:    0.0000
     atom:   16    charge:    3.2179    magn:    0.9986    constr:    0.0000
     atom:   17    charge:    3.2180    magn:    1.0002    constr:    0.0000
     atom:   18    charge:    3.2032    magn:    0.9546    constr:    0.0000
     atom:   19    charge:    3.2030    magn:    0.9605    constr:    0.0000
     atom:   20    charge:    3.2179    magn:    0.9986    constr:    0.0000
     atom:   21    charge:    3.2180    magn:    1.0002    constr:    0.0000
     atom:   22    charge:    3.2033    magn:    0.9553    constr:    0.0000
     atom:   23    charge:    3.2030    magn:    0.9605    constr:    0.0000
     atom:   24    charge:    3.2188    magn:    1.0029    constr:    0.0000
     atom:   25    charge:    3.2181    magn:    0.9984    constr:    0.0000
     atom:   26    charge:    3.2034    magn:    0.9553    constr:    0.0000
     atom:   27    charge:    3.2030    magn:    0.9548    constr:    0.0000
     atom:   28    charge:    3.2188    magn:    1.0029    constr:    0.0000
     atom:   29    charge:    3.2179    magn:    0.9999    constr:    0.0000
     atom:   30    charge:    3.2032    magn:    0.9546    constr:    0.0000
     atom:   31    charge:    3.2031    magn:    0.9582    constr:    0.0000
     atom:   32    charge:    3.2180    magn:    0.9986    constr:    0.0000
     atom:   33    charge:    3.2181    magn:    0.9984    constr:    0.0000
     atom:   34    charge:    3.2032    magn:    0.9546    constr:    0.0000
     atom:   35    charge:    3.2030    magn:    0.9548    constr:    0.0000
     atom:   36    charge:    3.2180    magn:    0.9986    constr:    0.0000
     atom:   37    charge:    2.0149    magn:    0.3810    constr:    0.0000

     total cpu time spent up to now is     1535.8 secs

     total energy              =   -2918.07372879 Ry
     Harris-Foulkes estimate   =   -2918.07162979 Ry
     estimated scf accuracy    <       0.01781129 Ry

     total magnetization       =    65.71 Bohr mag/cell
     absolute magnetization    =    71.14 Bohr mag/cell

     iteration # 16     ecut=    44.10 Ry     beta=0.10
     Davidson diagonalization with overlap
     ethr =  5.00E-06,  avg # of iterations =  1.0

     negative rho (up, down):  8.035E-03 8.719E-03
 
     Adding external electric field

     Computed dipole along edir(3) : 
        Dipole               -0.6708 Ry au,         -1.7051 Debye
        Dipole field         -0.0008 Ry au
 
        Potential amp.        0.0566 Ry
        Total length         34.6232 bohr
 
 
     Adding external electric field

     Computed dipole along edir(3) : 
        Dipole               -0.6708 Ry au,         -1.7051 Debye
        Dipole field         -0.0008 Ry au
 
        Potential amp.        0.0566 Ry
        Total length         34.6232 bohr
 
 
     Magnetic moment per site:
     atom:    1    charge:    3.2179    magn:    1.0003    constr:    0.0000
     atom:    2    charge:    3.2031    magn:    0.9537    constr:    0.0000
     atom:    3    charge:    3.2032    magn:    0.9607    constr:    0.0000
     atom:    4    charge:    3.2219    magn:    1.0294    constr:    0.0000
     atom:    5    charge:    3.2179    magn:    1.0003    constr:    0.0000
     atom:    6    charge:    3.2015    magn:    0.9192    constr:    0.0000
     atom:    7    charge:    3.2032    magn:    0.9607    constr:    0.0000
     atom:    8    charge:    3.1868    magn:    1.0101    constr:    0.0000
     atom:    9    charge:    3.2187    magn:    0.9972    constr:    0.0000
     atom:   10    charge:    3.2031    magn:    0.9537    constr:    0.0000
     atom:   11    charge:    3.2024    magn:    0.9534    constr:    0.0000
     atom:   12    charge:    3.2219    magn:    1.0294    constr:    0.0000
     atom:   13    charge:    3.2187    magn:    0.9972    constr:    0.0000
     atom:   14    charge:    3.2032    magn:    0.9552    constr:    0.0000
     atom:   15    charge:    3.2024    magn:    0.9534    constr:    0.0000
     atom:   16    charge:    3.2180    magn:    0.9985    constr:    0.0000
     atom:   17    charge:    3.2179    magn:    1.0003    constr:    0.0000
     atom:   18    charge:    3.2031    magn:    0.9552    constr:    0.0000
     atom:   19    charge:    3.2032    magn:    0.9607    constr:    0.0000
     atom:   20    charge:    3.2180    magn:    0.9985    constr:    0.0000
     atom:   21    charge:    3.2179    magn:    1.0003    constr:    0.0000
     atom:   22    charge:    3.2031    magn:    0.9559    constr:    0.0000
     atom:   23    charge:    3.2032    magn:    0.9607    constr:    0.0000
     atom:   24    charge:    3.2189    magn:    1.0028    constr:    0.0000
     atom:   25    charge:    3.2179    magn:    0.9987    constr:    0.0000
     atom:   26    charge:    3.2031    magn:    0.9560    constr:    0.0000
     atom:   27    charge:    3.2028    magn:    0.9553    constr:    0.0000
     atom:   28    charge:    3.2189    magn:    1.0028    constr:    0.0000
     atom:   29    charge:    3.2174    magn:    1.0003    constr:    0.0000
     atom:   30    charge:    3.2031    magn:    0.9552    constr:    0.0000
     atom:   31    charge:    3.2030    magn:    0.9586    constr:    0.0000
     atom:   32    charge:    3.2180    magn:    0.9985    constr:    0.0000
     atom:   33    charge:    3.2179    magn:    0.9987    constr:    0.0000
     atom:   34    charge:    3.2031    magn:    0.9552    constr:    0.0000
     atom:   35    charge:    3.2028    magn:    0.9553    constr:    0.0000
     atom:   36    charge:    3.2180    magn:    0.9985    constr:    0.0000
     atom:   37    charge:    2.0149    magn:    0.3829    constr:    0.0000

     total cpu time spent up to now is     1622.4 secs

     total energy              =   -2918.07408330 Ry
     Harris-Foulkes estimate   =   -2918.07448218 Ry
     estimated scf accuracy    <       0.02008983 Ry

     total magnetization       =    65.48 Bohr mag/cell
     absolute magnetization    =    71.10 Bohr mag/cell

     iteration # 17     ecut=    44.10 Ry     beta=0.10
     Davidson diagonalization with overlap
     ethr =  5.00E-06,  avg # of iterations =  1.3

     negative rho (up, down):  7.397E-03 8.827E-03
 
     Adding external electric field

     Computed dipole along edir(3) : 
        Dipole               -0.6412 Ry au,         -1.6298 Debye
        Dipole field         -0.0008 Ry au
 
        Potential amp.        0.0541 Ry
        Total length         34.6232 bohr
 
 
     Adding external electric field

     Computed dipole along edir(3) : 
        Dipole               -0.6412 Ry au,         -1.6298 Debye
        Dipole field         -0.0008 Ry au
 
        Potential amp.        0.0541 Ry
        Total length         34.6232 bohr
 
 
     Magnetic moment per site:
     atom:    1    charge:    3.2185    magn:    1.0002    constr:    0.0000
     atom:    2    charge:    3.2033    magn:    0.9511    constr:    0.0000
     atom:    3    charge:    3.2032    magn:    0.9591    constr:    0.0000
     atom:    4    charge:    3.2219    magn:    1.0298    constr:    0.0000
     atom:    5    charge:    3.2185    magn:    1.0002    constr:    0.0000
     atom:    6    charge:    3.2018    magn:    0.9152    constr:    0.0000
     atom:    7    charge:    3.2032    magn:    0.9591    constr:    0.0000
     atom:    8    charge:    3.1866    magn:    1.0083    constr:    0.0000
     atom:    9    charge:    3.2187    magn:    0.9973    constr:    0.0000
     atom:   10    charge:    3.2033    magn:    0.9511    constr:    0.0000
     atom:   11    charge:    3.2026    magn:    0.9513    constr:    0.0000
     atom:   12    charge:    3.2219    magn:    1.0298    constr:    0.0000
     atom:   13    charge:    3.2188    magn:    0.9972    constr:    0.0000
     atom:   14    charge:    3.2032    magn:    0.9526    constr:    0.0000
     atom:   15    charge:    3.2026    magn:    0.9513    constr:    0.0000
     atom:   16    charge:    3.2185    magn:    0.9983    constr:    0.0000
     atom:   17    charge:    3.2185    magn:    1.0002    constr:    0.0000
     atom:   18    charge:    3.2032    magn:    0.9526    constr:    0.0000
     atom:   19    charge:    3.2032    magn:    0.9591    constr:    0.0000
     atom:   20    charge:    3.2185    magn:    0.9983    constr:    0.0000
     atom:   21    charge:    3.2185    magn:    1.0002    constr:    0.0000
     atom:   22    charge:    3.2028    magn:    0.9540    constr:    0.0000
     atom:   23    charge:    3.2032    magn:    0.9591    constr:    0.0000
     atom:   24    charge:    3.2193    magn:    1.0027    constr:    0.0000
     atom:   25    charge:    3.2186    magn:    0.9982    constr:    0.0000
     atom:   26    charge:    3.2027    magn:    0.9540    constr:    0.0000
     atom:   27    charge:    3.2027    magn:    0.9532    constr:    0.0000
     atom:   28    charge:    3.2192    magn:    1.0027    constr:    0.0000
     atom:   29    charge:    3.2177    magn:    1.0001    constr:    0.0000
     atom:   30    charge:    3.2031    magn:    0.9526    constr:    0.0000
     atom:   31    charge:    3.2031    magn:    0.9568    constr:    0.0000
     atom:   32    charge:    3.2185    magn:    0.9983    constr:    0.0000
     atom:   33    charge:    3.2186    magn:    0.9982    constr:    0.0000
     atom:   34    charge:    3.2031    magn:    0.9526    constr:    0.0000
     atom:   35    charge:    3.2027    magn:    0.9532    constr:    0.0000
     atom:   36    charge:    3.2185    magn:    0.9983    constr:    0.0000
     atom:   37    charge:    2.0141    magn:    0.3717    constr:    0.0000

     total cpu time spent up to now is     1709.9 secs

     total energy              =   -2918.07567153 Ry
     Harris-Foulkes estimate   =   -2918.07485523 Ry
     estimated scf accuracy    <       0.02208694 Ry

     total magnetization       =    65.50 Bohr mag/cell
     absolute magnetization    =    71.12 Bohr mag/cell

     iteration # 18     ecut=    44.10 Ry     beta=0.10
     Davidson diagonalization with overlap
     ethr =  5.00E-06,  avg # of iterations =  1.0

     negative rho (up, down):  6.821E-03 8.982E-03
 
     Adding external electric field

     Computed dipole along edir(3) : 
        Dipole               -0.6467 Ry au,         -1.6436 Debye
        Dipole field         -0.0008 Ry au
 
        Potential amp.        0.0546 Ry
        Total length         34.6232 bohr
 
 
     Adding external electric field

     Computed dipole along edir(3) : 
        Dipole               -0.6467 Ry au,         -1.6436 Debye
        Dipole field         -0.0008 Ry au
 
        Potential amp.        0.0546 Ry
        Total length         34.6232 bohr
 
 
     Magnetic moment per site:
     atom:    1    charge:    3.2185    magn:    1.0003    constr:    0.0000
     atom:    2    charge:    3.2025    magn:    0.9477    constr:    0.0000
     atom:    3    charge:    3.2027    magn:    0.9568    constr:    0.0000
     atom:    4    charge:    3.2218    magn:    1.0301    constr:    0.0000
     atom:    5    charge:    3.2185    magn:    1.0003    constr:    0.0000
     atom:    6    charge:    3.2013    magn:    0.9099    constr:    0.0000
     atom:    7    charge:    3.2027    magn:    0.9568    constr:    0.0000
     atom:    8    charge:    3.1870    magn:    1.0053    constr:    0.0000
     atom:    9    charge:    3.2189    magn:    0.9969    constr:    0.0000
     atom:   10    charge:    3.2025    magn:    0.9477    constr:    0.0000
     atom:   11    charge:    3.2021    magn:    0.9484    constr:    0.0000
     atom:   12    charge:    3.2218    magn:    1.0301    constr:    0.0000
     atom:   13    charge:    3.2189    magn:    0.9970    constr:    0.0000
     atom:   14    charge:    3.2027    magn:    0.9489    constr:    0.0000
     atom:   15    charge:    3.2021    magn:    0.9484    constr:    0.0000
     atom:   16    charge:    3.2194    magn:    0.9974    constr:    0.0000
     atom:   17    charge:    3.2184    magn:    1.0003    constr:    0.0000
     atom:   18    charge:    3.2027    magn:    0.9489    constr:    0.0000
[...]
    -1.4223  -1.3975  -1.3766  -1.3579  -1.3383  -1.3208  -1.2933  -1.2757
    -1.2599  -1.2413  -1.2309  -1.2290  -1.2073  -1.1852  -1.1478  -1.1411
    -1.1154  -1.1099  -1.0844  -1.0566  -1.0506  -1.0242  -1.0184  -1.0121
    -0.9987  -0.9930  -0.9521  -0.9500  -0.9490  -0.9044  -0.9039  -0.8875
    -0.8506  -0.8505  -0.8411  -0.8321  -0.8130  -0.7918  -0.7846  -0.7554
    -0.7354  -0.7012  -0.6972  -0.6620  -0.6587  -0.6042  -0.5983  -0.5806
    -0.5689  -0.5412  -0.5377  -0.4634  -0.4384  -0.4155  -0.3937  -0.3607
    -0.2781   0.0227   0.3429   0.3761   0.5374   0.5858   0.6447   0.6867
     0.7512   0.8301   1.2995   1.4707   1.4840   1.7509   1.8108   1.8568
     2.4235   2.4995   2.5736   2.6663   2.8183   2.9386   2.9585   3.2296
     3.2649   3.2773   3.4118   3.6878   3.9088   3.9614   3.9945   4.2769
     4.5184   4.8132   4.8593   5.0520   5.1285   5.2449   5.3862   5.5167
     5.6618   5.6806   5.7073   5.8304   6.2779   6.2813   6.3707   6.4103
     6.4177   6.5348   6.5509   6.5655   6.6250   6.6335   6.6439   6.9478
     7.0489   7.0845   7.1354   7.2204   7.4743   7.5616   7.6942   7.7712
     7.8166   7.9127   7.9382   8.1072   8.2009   8.2588   8.3053   8.3282
     8.5789

 ------ SPIN DOWN ----------


          k = 0.0000 0.0000 0.0000 ( 50983 PWs)   bands (ev):

   -16.4115  -7.5261  -6.2262  -6.2175  -5.0763  -5.0655  -4.7471  -4.1867
    -4.1635  -4.1540  -4.1437  -3.9545  -3.9520  -3.6132  -3.5949  -3.3383
    -3.2691  -3.2082  -3.0152  -2.9307  -2.9147  -2.7243  -2.7172  -2.7160
    -2.6572  -2.6078  -2.5023  -2.4511  -2.4281  -2.4258  -2.4088  -2.3829
    -2.3156  -2.3123  -2.2969  -2.2123  -2.2106  -2.1467  -2.1383  -2.1193
    -2.1043  -2.0805  -2.0427  -2.0426  -2.0213  -1.9119  -1.9051  -1.8190
    -1.7839  -1.7799  -1.7317  -1.7049  -1.6981  -1.6706  -1.6701  -1.6475
    -1.5647  -1.5145  -1.4795  -1.4773  -1.4531  -1.4014  -1.2892  -1.2324
    -1.1953  -1.1639  -1.1501  -1.1197  -1.1164  -1.1082  -1.1066  -1.1007
    -1.0634  -1.0541  -1.0457  -0.9994  -0.9908  -0.9197  -0.8123  -0.8022
    -0.7997  -0.7947  -0.7883  -0.7477  -0.7357  -0.6917  -0.6822  -0.6783
    -0.6777  -0.6506  -0.6020  -0.5938  -0.5709  -0.5106  -0.5066  -0.4884
    -0.4858  -0.4775  -0.4560  -0.3947  -0.3613  -0.3478  -0.3432  -0.3295
    -0.3200  -0.3165  -0.2831  -0.2626  -0.2547  -0.2511  -0.2376  -0.2002
    -0.1830  -0.1336  -0.1132  -0.1062  -0.0749  -0.0619  -0.0051   0.0028
     0.0149   0.0782   0.1206   0.1603   0.1736   0.2082   0.2583   0.2649
     0.3193   0.3353   0.3690   0.3737   0.3848   0.3853   0.3958   0.4117
     0.4555   0.5340   0.5417   0.5589   0.5617   0.5620   0.5881   0.6312
     0.6529   0.6596   0.6854   0.6960   0.6969   0.7334   0.7350   0.7374
     0.7600   0.7952   0.8004   0.8972   0.9166   0.9182   0.9196   0.9508
     0.9604   0.9658   0.9719   0.9793   0.9917   1.0213   1.0249   1.0334
     1.0727   1.0788   1.0840   1.0862   1.0929   1.0981   1.1279   1.1300
     1.1355   1.1399   1.1547   1.1989   1.2022   1.2023   1.2055   1.2102
     1.2238   1.2426   1.2753   1.2873   1.3009   1.3061   1.3202   1.3266
     1.3588   1.4386   1.4499   1.4851   1.4856   1.4874   1.5008   1.5053
     1.5740   1.7655   2.0849   2.4986   2.5129   2.5907   2.5949   3.0706
     3.1392   3.2620   3.2939   3.3707   3.6120   3.6156   3.6375   3.6684
     3.7124   4.0587   4.2229   4.4946   4.5767   4.5789   4.6991   5.0167
     5.2823   5.3467   5.3640   5.4235   5.5275   5.6845   5.9475   5.9525
     5.9827   5.9844   6.1260   6.1821   6.4101   6.4357   6.6987   6.7118
     6.7166   6.7251   6.7902   6.8302   6.9364   7.3710   7.4055   7.5193
     7.6641   7.7036   7.8095   7.9216   7.9332   7.9470   7.9707   7.9718
     8.0850   8.2807   8.3164   8.3693   8.3787   8.3905   8.4473   8.6146
     8.6311

          k = 0.0000 0.0538 0.0000 ( 51003 PWs)   bands (ev):

   -16.4115  -7.0700  -6.6320  -6.2032  -5.7973  -5.0600  -4.3811  -4.3748
    -4.1361  -4.0894  -3.7802  -3.7295  -3.6143  -3.5575  -3.4465  -3.3346
    -3.2604  -3.1568  -3.1032  -2.9958  -2.9686  -2.9539  -2.9196  -2.8518
    -2.6583  -2.6255  -2.5966  -2.5700  -2.5221  -2.4838  -2.4544  -2.4305
    -2.4113  -2.4040  -2.3144  -2.2205  -2.2024  -2.1760  -2.1366  -2.0613
    -2.0507  -2.0360  -1.9925  -1.9636  -1.9445  -1.8969  -1.8812  -1.8503
    -1.8204  -1.7490  -1.6875  -1.6552  -1.6465  -1.6299  -1.6198  -1.5872
    -1.5562  -1.4950  -1.4628  -1.4309  -1.4020  -1.3966  -1.3773  -1.3728
    -1.3390  -1.3080  -1.2602  -1.1989  -1.1631  -1.1228  -1.1122  -1.0723
    -1.0403  -1.0089  -0.9914  -0.9645  -0.9354  -0.9000  -0.8784  -0.8622
    -0.8395  -0.8292  -0.8210  -0.8013  -0.7937  -0.7715  -0.7342  -0.6802
    -0.6589  -0.6331  -0.6104  -0.6010  -0.5884  -0.5627  -0.5565  -0.5387
    -0.5287  -0.4925  -0.4639  -0.4502  -0.4189  -0.4087  -0.3636  -0.3512
    -0.3345  -0.2979  -0.2911  -0.2558  -0.2464  -0.2006  -0.1598  -0.1448
    -0.1228  -0.0970  -0.0700  -0.0574  -0.0438  -0.0057   0.0131   0.0463
     0.0747   0.1064   0.1083   0.1500   0.1607   0.1789   0.1814   0.2130
     0.2234   0.2403   0.2685   0.2778   0.2842   0.2965   0.3166   0.3816
     0.4218   0.4343   0.4462   0.5270   0.5340   0.5384   0.5639   0.5868
     0.5951   0.6569   0.6708   0.6814   0.7087   0.7267   0.7669   0.8068
     0.8228   0.8635   0.8757   0.8794   0.8903   0.9105   0.9143   0.9318
     0.9384   0.9627   0.9770   1.0164   1.0178   1.0207   1.0481   1.0518
     1.0591   1.0737   1.0910   1.0932   1.0977   1.1300   1.1469   1.1804
     1.1902   1.2547   1.2611   1.2689   1.2793   1.2867   1.3073   1.3350
     1.3467   1.3495   1.3558   1.4010   1.4143   1.4182   1.4276   1.4336
     1.4417   1.4915   1.4949   1.6651   1.7317   1.7897   1.8886   1.9358
     2.0310   2.0491   2.3559   2.3712   2.4104   2.4870   2.5583   2.8347
     3.0342   3.1062   3.1636   3.3837   3.6615   3.6752   3.6817   3.8178
     3.9247   4.1103   4.2485   4.3163   4.4774   4.5400   4.6271   4.7011
     4.8383   4.8471   5.0057   5.3068   5.4146   5.5316   5.6077   5.7405
     5.8716   5.8991   5.9678   6.0989   6.2760   6.3018   6.3903   6.4472
     6.5940   6.7100   6.7735   6.8880   6.9691   7.0901   7.1900   7.2414
     7.2936   7.3729   7.3870   7.6685   7.7359   7.8056   7.9353   8.0801
     8.1327   8.1728   8.1962   8.3200   8.3419   8.3907   8.4560   8.4665
     8.7269

          k = 0.0254 0.0179 0.0000 ( 50993 PWs)   bands (ev):

   -16.4115  -7.3747  -6.9287  -5.3237  -4.9634  -4.9517  -4.6477  -4.6388
    -4.6277  -4.3761  -4.3520  -3.6847  -3.6085  -3.5340  -3.3363  -3.1927
    -3.1758  -3.1655  -3.1544  -3.1005  -3.0471  -2.9804  -2.8832  -2.8555
    -2.6948  -2.6348  -2.5258  -2.4467  -2.4136  -2.3741  -2.3330  -2.2974
    -2.2473  -2.2344  -2.2325  -2.1852  -2.1800  -2.1313  -2.0991  -2.0915
    -2.0335  -2.0259  -1.9767  -1.9737  -1.9386  -1.9308  -1.9067  -1.8765
    -1.8290  -1.8178  -1.8026  -1.7357  -1.6946  -1.6884  -1.6620  -1.6256
    -1.6198  -1.5884  -1.5578  -1.5505  -1.3835  -1.3469  -1.3224  -1.3115
    -1.2506  -1.2117  -1.1946  -1.1875  -1.1664  -1.1634  -1.1287  -1.1016
    -1.0204  -1.0020  -0.9961  -0.9329  -0.8995  -0.8968  -0.8834  -0.8489
    -0.8468  -0.8321  -0.8046  -0.7764  -0.6160  -0.5835  -0.5771  -0.5725
    -0.5586  -0.5379  -0.5376  -0.5177  -0.5162  -0.5056  -0.4985  -0.4891
    -0.4722  -0.4617  -0.4331  -0.4047  -0.3964  -0.3954  -0.3765  -0.3663
    -0.3504  -0.3352  -0.3229  -0.3044  -0.2899  -0.2716  -0.2480  -0.1855
    -0.1751  -0.1515  -0.1271  -0.1207  -0.0883  -0.0402  -0.0391  -0.0150
     0.0272   0.0644   0.0806   0.1183   0.1797   0.1816   0.2173   0.2176
     0.2286   0.2822   0.3269   0.3295   0.3465   0.3822   0.4123   0.4261
     0.4337   0.4580   0.5285   0.5319   0.5938   0.5968   0.6124   0.6310
     0.6891   0.7096   0.7147   0.7404   0.7409   0.7509   0.7670   0.7722
     0.7984   0.8398   0.8582   0.8603   0.8709   0.9028   0.9239   0.9259
     0.9399   0.9690   1.0214   1.0314   1.0351   1.0414   1.0434   1.0552
     1.0610   1.0813   1.0883   1.0929   1.1060   1.1152   1.1209   1.1230
     1.1235   1.1358   1.1404   1.1533   1.1891   1.1999   1.2279   1.2437
     1.2803   1.3009   1.3039   1.3296   1.3338   1.3493   1.3918   1.3985
     1.4068   1.4286   1.4357   1.4564   1.4632   1.4653   1.5296   1.6118
     1.6164   1.8576   1.9488   2.0331   2.3162   2.3500   2.4914   2.6581
     3.2132   3.2977   3.3678   3.4113   3.4335   3.5228   3.6917   3.7869
     3.9159   4.2026   4.3395   4.4027   4.6127   4.7458   4.9899   5.0447
     5.0666   5.4008   5.5139   5.5242   5.6482   5.7417   5.8127   5.9610
     6.0351   6.2099   6.2182   6.2672   6.3516   6.4122   6.6264   6.7331
     6.8233   6.8663   6.9523   7.1004   7.1778   7.2337   7.4770   7.5733
     7.5810   7.6489   7.8025   7.8048   7.8269   7.8349   7.8651   7.8912
     7.9532   7.9945   8.0957   8.1890   8.2314   8.2944   8.3479   8.3603
     8.3931

          k = 0.0254 0.0718 0.0000 ( 51003 PWs)   bands (ev):

   -16.4115  -7.0700  -6.6320  -6.2032  -5.7973  -5.0600  -4.3811  -4.3748
    -4.1361  -4.0894  -3.7802  -3.7295  -3.6143  -3.5575  -3.4465  -3.3346
    -3.2604  -3.1568  -3.1032  -2.9958  -2.9686  -2.9539  -2.9196  -2.8518
    -2.6583  -2.6255  -2.5967  -2.5701  -2.5221  -2.4838  -2.4544  -2.4305
    -2.4113  -2.4040  -2.3144  -2.2205  -2.2023  -2.1760  -2.1366  -2.0613
    -2.0507  -2.0360  -1.9926  -1.9636  -1.9445  -1.8969  -1.8812  -1.8503
    -1.8204  -1.7490  -1.6876  -1.6552  -1.6465  -1.6299  -1.6198  -1.5872
    -1.5562  -1.4951  -1.4628  -1.4309  -1.4020  -1.3965  -1.3773  -1.3728
    -1.3390  -1.3080  -1.2603  -1.1989  -1.1631  -1.1228  -1.1123  -1.0723
    -1.0403  -1.0089  -0.9914  -0.9645  -0.9354  -0.9000  -0.8784  -0.8621
    -0.8395  -0.8293  -0.8209  -0.8013  -0.7937  -0.7715  -0.7342  -0.6802
    -0.6589  -0.6331  -0.6104  -0.6010  -0.5884  -0.5627  -0.5565  -0.5387
    -0.5287  -0.4925  -0.4639  -0.4502  -0.4189  -0.4087  -0.3636  -0.3512
    -0.3345  -0.2979  -0.2911  -0.2557  -0.2464  -0.2006  -0.1598  -0.1448
    -0.1229  -0.0970  -0.0700  -0.0573  -0.0438  -0.0057   0.0131   0.0463
     0.0747   0.1064   0.1082   0.1500   0.1607   0.1789   0.1814   0.2130
     0.2235   0.2403   0.2684   0.2778   0.2842   0.2965   0.3166   0.3816
     0.4217   0.4342   0.4462   0.5270   0.5340   0.5384   0.5639   0.5867
     0.5951   0.6570   0.6708   0.6815   0.7087   0.7266   0.7669   0.8068
     0.8228   0.8635   0.8757   0.8794   0.8903   0.9105   0.9143   0.9318
     0.9383   0.9627   0.9770   1.0163   1.0178   1.0207   1.0481   1.0518
     1.0592   1.0737   1.0910   1.0932   1.0978   1.1300   1.1469   1.1804
     1.1902   1.2547   1.2611   1.2689   1.2793   1.2867   1.3073   1.3350
     1.3468   1.3495   1.3558   1.4009   1.4143   1.4182   1.4276   1.4336
     1.4417   1.4915   1.4949   1.6651   1.7317   1.7897   1.8886   1.9358
     2.0310   2.0491   2.3559   2.3712   2.4103   2.4870   2.5583   2.8347
     3.0342   3.1062   3.1635   3.3837   3.6615   3.6752   3.6817   3.8178
     3.9246   4.1103   4.2484   4.3163   4.4774   4.5400   4.6271   4.7011
     4.8383   4.8471   5.0057   5.3068   5.4146   5.5317   5.6077   5.7406
     5.8716   5.8991   5.9678   6.0988   6.2759   6.3019   6.3902   6.4472
     6.5941   6.7101   6.7735   6.8882   6.9688   7.0901   7.1901   7.2413
     7.2936   7.3729   7.3871   7.6685   7.7360   7.8056   7.9352   8.0801
     8.1327   8.1728   8.1963   8.3199   8.3418   8.3908   8.4562   8.4665
     8.7270

          k = 0.0254-0.0359 0.0000 ( 51064 PWs)   bands (ev):

   -16.4115  -7.2190  -6.3430  -5.9419  -5.9344  -5.1631  -5.1612  -4.4855
    -3.8565  -3.8288  -3.7009  -3.6832  -3.5181  -3.3775  -3.3627  -3.3524
    -3.2407  -3.1974  -3.0264  -2.9972  -2.8937  -2.8839  -2.8808  -2.8588
    -2.7603  -2.7283  -2.7054  -2.6339  -2.5691  -2.4799  -2.4747  -2.3854
    -2.3690  -2.3584  -2.3040  -2.2906  -2.2519  -2.2321  -2.1939  -2.1336
    -2.1104  -2.0353  -2.0159  -1.9089  -1.8942  -1.8538  -1.8449  -1.8162
    -1.7952  -1.7874  -1.7597  -1.7474  -1.7251  -1.7218  -1.6784  -1.4839
    -1.4541  -1.4381  -1.4053  -1.3289  -1.3177  -1.3121  -1.2756  -1.2643
    -1.2547  -1.2391  -1.2084  -1.1761  -1.1631  -1.1515  -1.1410  -1.1387
    -1.1021  -1.0902  -1.0848  -1.0816  -1.0219  -0.9872  -0.9866  -0.8586
    -0.8359  -0.8232  -0.8088  -0.7874  -0.7848  -0.6987  -0.6925  -0.6813
    -0.6805  -0.6625  -0.6375  -0.5904  -0.5865  -0.5704  -0.5411  -0.5224
    -0.5153  -0.4703  -0.4433  -0.4332  -0.4102  -0.3816  -0.3617  -0.3518
    -0.3317  -0.3255  -0.2991  -0.2979  -0.2677  -0.2346  -0.1942  -0.1930
    -0.1663  -0.1455  -0.1074  -0.1049  -0.0853  -0.0327  -0.0293   0.0353
     0.0686   0.0973   0.1120   0.1190   0.1656   0.1788   0.1821   0.1969
     0.2302   0.2746   0.2856   0.2975   0.3137   0.3485   0.3508   0.3810
     0.4191   0.4562   0.4757   0.5287   0.5386   0.5750   0.6013   0.6186
     0.6405   0.6886   0.7383   0.7487   0.7766   0.7779   0.7806   0.7835
     0.7940   0.8198   0.8262   0.8339   0.8348   0.8674   0.8966   0.9356
     0.9476   0.9476   0.9578   0.9614   0.9840   1.0077   1.0293   1.0447
     1.0851   1.1023   1.1134   1.1168   1.1199   1.1357   1.1469   1.1497
     1.1815   1.1930   1.2095   1.2159   1.2542   1.3207   1.3271   1.3514
     1.3554   1.3772   1.3850   1.3863   1.4067   1.4201   1.4447   1.4509
     1.4540   1.4974   1.6863   1.7332   1.7829   1.8366   1.8667   2.0079
     2.0345   2.0750   2.1057   2.1879   2.2876   2.6408   2.8828   2.9138
     3.0614   3.1588   3.3467   3.5271   3.5781   3.6363   3.6844   3.6897
     3.7268   3.9752   3.9938   4.0775   4.3263   4.4821   4.5840   4.6361
     4.7097   5.1985   5.2411   5.3098   5.4514   5.5393   5.5762   5.6407
     5.6586   5.7522   5.8698   6.2501   6.3510   6.3695   6.4976   6.5184
     6.5416   6.6566   6.8904   6.9337   7.0340   7.0530   7.1715   7.2349
     7.2430   7.4393   7.4529   7.5803   7.6355   7.7325   7.8964   7.9109
     8.1328   8.2424   8.3210   8.3360   8.3786   8.4310   8.4631   8.5696
     8.7011

     the Fermi energy is     0.3465 ev

!    total energy              =   -2918.13765774 Ry
     Harris-Foulkes estimate   =   -2918.13748290 Ry
     estimated scf accuracy    <       0.00000067 Ry

     The total energy is the sum of the following terms:

     one-electron contribution =  -15014.90856989 Ry
     hartree contribution      =    7819.88046218 Ry
     xc contribution           =   -1335.62478921 Ry
     ewald contribution        =    5612.63373769 Ry
     electric field correction =       0.00049620 Ry
     smearing contrib. (-TS)   =      -0.11899471 Ry

     total magnetization       =    64.05 Bohr mag/cell
     absolute magnetization    =    70.45 Bohr mag/cell

     convergence has been achieved in  14 iterations

     Forces acting on atoms (Ry/au):


     negative rho (up, down):  5.062E-03 1.332E-02
     atom    1 type  1   force =     0.00057440    0.00140811    0.03046317
     atom    2 type  1   force =    -0.00041551    0.00053320   -0.03072977
     atom    3 type  1   force =     0.00012759   -0.00025533   -0.00028557
     atom    4 type  1   force =     0.00036423   -0.00047027    0.00055307
     atom    5 type  1   force =     0.00153502    0.00006840    0.03044062
     atom    6 type  1   force =    -0.00001920   -0.00002416   -0.03242154
     atom    7 type  1   force =    -0.00017913    0.00020169   -0.00024961
     atom    8 type  1   force =     0.00001524    0.00000626    0.00078913
     atom    9 type  1   force =     0.00055830    0.00041422    0.02942443
     atom   10 type  1   force =     0.00036993   -0.00055109   -0.03072826
     atom   11 type  1   force =     0.00039919    0.00029139   -0.00020854
     atom   12 type  1   force =    -0.00031957    0.00051102    0.00055461
     atom   13 type  1   force =    -0.00059100   -0.00041207    0.02945591
     atom   14 type  1   force =     0.00015869   -0.00055979   -0.02914005
     atom   15 type  1   force =    -0.00042628   -0.00030356   -0.00020029
     atom   16 type  1   force =    -0.00036843   -0.00007649    0.00012839
     atom   17 type  1   force =    -0.00155187   -0.00009929    0.03047010
     atom   18 type  1   force =    -0.00046786    0.00034819   -0.02914827
     atom   19 type  1   force =     0.00016764   -0.00023072   -0.00024549
     atom   20 type  1   force =    -0.00017252   -0.00033298    0.00011947
     atom   21 type  1   force =    -0.00060282   -0.00143671    0.03048460
     atom   22 type  1   force =    -0.00031049   -0.00022686   -0.02980709
     atom   23 type  1   force =    -0.00015662    0.00024623   -0.00024365
     atom   24 type  1   force =    -0.00030129   -0.00021234   -0.00000207
     atom   25 type  1   force =     0.00011226   -0.00010554    0.02974420
     atom   26 type  1   force =     0.00034653    0.00022268   -0.02979773
     atom   27 type  1   force =    -0.00002411    0.00008311    0.00020551
     atom   28 type  1   force =     0.00027187    0.00021263   -0.00006720
     atom   29 type  1   force =     0.00002134    0.00002313    0.03018250
     atom   30 type  1   force =     0.00048837   -0.00032974   -0.02914058
     atom   31 type  1   force =     0.00002676    0.00002630    0.00026528
     atom   32 type  1   force =     0.00014965    0.00032007    0.00006426
     atom   33 type  1   force =    -0.00005916    0.00013628    0.02974789
     atom   34 type  1   force =    -0.00014601    0.00059355   -0.02912942
     atom   35 type  1   force =     0.00008645   -0.00004735    0.00017500
     atom   36 type  1   force =     0.00035339    0.00004093    0.00007596
     atom   37 type  2   force =    -0.00001498   -0.00001311   -0.00179900

     Total force =     0.127513     Total SCF correction =     0.002098
 !ASE

     Writing output data file calc.save
 
     init_run     :     37.71s CPU     44.16s WALL (       1 calls)
     electrons    :  20592.45s CPU  24234.13s WALL (       7 calls)
     update_pot   :     21.81s CPU     23.08s WALL (       6 calls)
     forces       :    284.43s CPU    295.17s WALL (       7 calls)

     Called by init_run:
     wfcinit      :     25.51s CPU     31.25s WALL (       1 calls)
     potinit      :      1.55s CPU      1.67s WALL (       1 calls)

     Called by electrons:
     c_bands      :  14010.96s CPU  16841.90s WALL (     252 calls)
     sum_band     :   4723.37s CPU   5390.38s WALL (     252 calls)
     v_of_rho     :    151.45s CPU    177.24s WALL (     259 calls)
     newd         :   1708.48s CPU   1818.23s WALL (     259 calls)
     mix_rho      :     31.72s CPU     39.11s WALL (     252 calls)

     Called by c_bands:
     init_us_2    :     61.92s CPU     66.70s WALL (    5120 calls)
     cegterg      :  13723.06s CPU  16539.63s WALL (    2520 calls)

     Called by *egterg:
     h_psi        :   7892.29s CPU  10216.85s WALL (    8160 calls)
     s_psi        :    847.98s CPU    878.38s WALL (    8160 calls)
     g_psi        :     30.01s CPU     30.66s WALL (    5630 calls)
     cdiaghg      :   1909.10s CPU   1953.04s WALL (    8090 calls)

     Called by h_psi:
     add_vuspsi   :    857.76s CPU    884.01s WALL (    8160 calls)

     General routines
     calbec       :   1338.44s CPU   1370.07s WALL (   10750 calls)
     fft          :    153.03s CPU    180.37s WALL (    8092 calls)
     ffts         :      2.01s CPU      2.75s WALL (    1022 calls)
     fftw         :   4627.94s CPU   7336.43s WALL ( 3534114 calls)
     interpolate  :     18.45s CPU     26.08s WALL (    1022 calls)
     davcio       :      0.01s CPU      0.55s WALL (      10 calls)
 
     Parallel routines
     fft_scatter  :   2566.36s CPU   4221.12s WALL ( 3543228 calls)
 
     PWSCF        :     5h49m CPU        6h50m WALL

 
   This run was terminated on:  11:58:56  24Feb2018            

=------------------------------------------------------------------------------=
   JOB DONE.
=------------------------------------------------------------------------------=
