  python dir          : /home/vossj/suncat/lib/python2.7/site-packages/espresso
  espresso dir        : /home/vossj/suncat/esdld/espresso-dynpy-beef/bin
  pseudo dir          : /home/alatimer/bin/psp/esp_psp_w_gbrvRu/
  ase-espresso py git : ffa2778-git



     Program PWSCF v.5.1rc2 (svn rev. ) starts on 23Mar2018 at  9: 3:26 

     This program is part of the open-source Quantum ESPRESSO suite
     for quantum simulation of materials; please cite
         "P. Giannozzi et al., J. Phys.:Condens. Matter 21 395502 (2009);
          URL http://www.quantum-espresso.org", 
     in publications or presentations arising from this work. More details at
     http://www.quantum-espresso.org/quote

     Parallel version (MPI), running on    16 processors
     R & G space division:  proc/nbgrp/npool/nimage =      16
     Reading input from pw.inp
     Message from routine read_cards :
     DEPRECATED: no units specified in CELL_PARAMETERS card

     Current dimensions of program PWSCF are:
     Max number of different atomic species (ntypx) = 10
     Max number of k-points (npk) =  40000
     Max angular momentum in pseudopotentials (lmaxx) =  3
     Presently no symmetry can be used with electric field


     IMPORTANT: XC functional enforced from input :
     Exchange-correlation      = RPBE ( 1  4 28  4 0)
     Any further DFT definition will be discarded
     Please, verify this is what you really want

               file Ni.UPF: wavefunction(s)  3D renormalized

     Subspace diagonalization in iterative solution of the eigenvalue problem:
     a serial algorithm will be used

 
     Parallelization info
     --------------------
     sticks:   dense  smooth     PW     G-vecs:    dense   smooth      PW
     Min         363     145     39               122687    31011    4299
     Max         364     146     40               122712    31054    4310
     Sum        5823    2325    627              1963319   496527   68879
 
     Generating pointlists ...
     new r_m :   0.4125 (alat units)  0.7795 (a.u.) for type    1
     new r_m :   0.4125 (alat units)  0.7795 (a.u.) for type    2


     bravais-lattice index     =            0
     lattice parameter (alat)  =       1.8897  a.u.
     unit-cell volume          =   12553.3819 (a.u.)^3
     number of atoms/cell      =           37
     number of atomic types    =            2
     number of electrons       =       366.00
     number of Kohn-Sham states=          283
     kinetic-energy cutoff     =      44.0992  Ry
     charge density cutoff     =     440.9919  Ry
     convergence threshold     =      7.3E-07
     mixing beta               =       0.1000
     number of iterations used =           10  plain     mixing
     Exchange-correlation      = RPBE ( 1  4 28  4 0)
     nstep                     =           50


     celldm(1)=   1.889726  celldm(2)=   0.000000  celldm(3)=   0.000000
     celldm(4)=   0.000000  celldm(5)=   0.000000  celldm(6)=   0.000000

     crystal axes: (cart. coord. in units of alat)
               a(1) = (   6.162925   0.000000   0.000000 )  
               a(2) = (   0.000000   7.548011   0.000000 )  
               a(3) = (   0.000000   0.000000  39.989385 )  

     reciprocal axes: (cart. coord. in units 2 pi/alat)
               b(1) = (  0.162261  0.000000  0.000000 )  
               b(2) = (  0.000000  0.132485  0.000000 )  
               b(3) = (  0.000000  0.000000  0.025007 )  


     PseudoPot. # 1 for Ni read from file:
     /home/alatimer/bin/psp/esp_psp_w_gbrvRu/Ni.UPF
     MD5 check sum: 8b2449ee0060d9c33484ccd47bb60870
     Pseudo is Ultrasoft + core correction, Zval = 10.0
     Generated using "atomic" code by A. Dal Corso  v.5.0.2 svn rev. 9415
     Using radial grid of 1195 points,  6 beta functions with: 
                l(1) =   0
                l(2) =   0
                l(3) =   1
                l(4) =   1
                l(5) =   2
                l(6) =   2
     Q(r) pseudized with 0 coefficients 


     PseudoPot. # 2 for  O read from file:
     /home/alatimer/bin/psp/esp_psp_w_gbrvRu/O.UPF
     MD5 check sum: e057bbcf3229fb5d8c36c0c92f9568b4
     Pseudo is Ultrasoft + core correction, Zval =  6.0
     Generated using "atomic" code by A. Dal Corso  v.5.0.2 svn rev. 9415
     Using radial grid of 1095 points,  4 beta functions with: 
                l(1) =   0
                l(2) =   0
                l(3) =   1
                l(4) =   1
     Q(r) pseudized with 0 coefficients 


     atomic species   valence    mass     pseudopotential
        Ni1           10.00    58.69340     Ni( 1.00)
        O1             6.00    15.99940      O( 1.00)

     Starting magnetic structure 
     atomic species   magnetization
        Ni1          0.300
        O1           0.500

     No symmetry found



   Cartesian axes

     site n.     atom                  positions (alat units)
         1           Ni1 tau(   1) = (   0.0000000   1.2580018  23.9893847  )
         2           Ni1 tau(   2) = (   0.0000000   3.7740055  23.9893847  )
         3           Ni1 tau(   3) = (   0.0000000   6.2900092  23.9893847  )
         4           Ni1 tau(   4) = (   4.1086168   0.0000000  23.2630770  )
         5           Ni1 tau(   5) = (   4.1086168   2.5160037  23.2630770  )
         6           Ni1 tau(   6) = (   4.1086168   5.0320073  23.2630770  )
         7           Ni1 tau(   7) = (   2.0543084   1.2580018  22.5367693  )
         8           Ni1 tau(   8) = (   2.0543084   3.7740055  22.5367693  )
         9           Ni1 tau(   9) = (   2.0543084   6.2900092  22.5367693  )
        10           Ni1 tau(  10) = (   0.0000000   0.0000000  21.8104616  )
        11           Ni1 tau(  11) = (   0.0000000   2.5160037  21.8104616  )
        12           Ni1 tau(  12) = (   0.0000000   5.0320073  21.8104616  )
        13           Ni1 tau(  13) = (   4.1086168   1.2580018  21.0841539  )
        14           Ni1 tau(  14) = (   4.1086168   3.7740055  21.0841539  )
        15           Ni1 tau(  15) = (   4.1086168   6.2900092  21.0841539  )
        16           Ni1 tau(  16) = (   2.0543084   0.0000000  20.3578462  )
        17           Ni1 tau(  17) = (   2.0543084   2.5160037  20.3578462  )
        18           Ni1 tau(  18) = (   2.0543084   5.0320073  20.3578462  )
        19           Ni1 tau(  19) = (   0.0000000   1.2580018  19.6315385  )
        20           Ni1 tau(  20) = (   0.0000000   3.7740055  19.6315385  )
        21           Ni1 tau(  21) = (   0.0000000   6.2900092  19.6315385  )
        22           Ni1 tau(  22) = (   4.1086168   0.0000000  18.9052308  )
        23           Ni1 tau(  23) = (   4.1086168   2.5160037  18.9052308  )
        24           Ni1 tau(  24) = (   4.1086168   5.0320073  18.9052308  )
        25           Ni1 tau(  25) = (   2.0543084   1.2580018  18.1789231  )
        26           Ni1 tau(  26) = (   2.0543084   3.7740055  18.1789231  )
        27           Ni1 tau(  27) = (   2.0543084   6.2900092  18.1789231  )
        28           Ni1 tau(  28) = (   0.0000000   0.0000000  17.4526154  )
        29           Ni1 tau(  29) = (   0.0000000   2.5160037  17.4526154  )
        30           Ni1 tau(  30) = (   0.0000000   5.0320073  17.4526154  )
        31           Ni1 tau(  31) = (   4.1086168   1.2580018  16.7263077  )
        32           Ni1 tau(  32) = (   4.1086168   3.7740055  16.7263077  )
        33           Ni1 tau(  33) = (   4.1086168   6.2900092  16.7263077  )
        34           Ni1 tau(  34) = (   2.0543084   0.0000000  16.0000000  )
        35           Ni1 tau(  35) = (   2.0543084   2.5160037  16.0000000  )
        36           Ni1 tau(  36) = (   2.0543084   5.0320073  16.0000000  )
        37           O1  tau(  37) = (   1.9993671   2.6166424  23.7893806  )

     number of k points=    10  Fermi-Dirac smearing, width (Ry)=  0.0073
                       cart. coord. in units 2pi/alat
        k(    1) = (   0.0000000   0.0000000   0.0000000), wk =   0.1111111
        k(    2) = (   0.0000000   0.0441617   0.0000000), wk =   0.2222222
        k(    3) = (   0.0540869   0.0000000   0.0000000), wk =   0.2222222
        k(    4) = (   0.0540869   0.0441617   0.0000000), wk =   0.2222222
        k(    5) = (   0.0540869  -0.0441617   0.0000000), wk =   0.2222222
        k(    6) = (   0.0000000   0.0000000   0.0000000), wk =   0.1111111
        k(    7) = (   0.0000000   0.0441617   0.0000000), wk =   0.2222222
        k(    8) = (   0.0540869   0.0000000   0.0000000), wk =   0.2222222
        k(    9) = (   0.0540869   0.0441617   0.0000000), wk =   0.2222222
        k(   10) = (   0.0540869  -0.0441617   0.0000000), wk =   0.2222222

     Dense  grid:  1963319 G-vectors     FFT dimensions: (  80,  96, 512)

     Smooth grid:   496527 G-vectors     FFT dimensions: (  50,  64, 320)

     Largest allocated arrays     est. size (Mb)     dimensions
        Kohn-Sham Wavefunctions        16.83 Mb     (    3897,  283)
        NL pseudopotentials            39.01 Mb     (    3897,  656)
        Each V/rho on FFT grid          7.50 Mb     (  245760,   2)
        Each G-vector array             0.94 Mb     (  122712)
        G-vector shells                 0.42 Mb     (   55687)
     Largest temporary arrays     est. size (Mb)     dimensions
        Auxiliary wavefunctions        67.31 Mb     (    3897, 1132)
        Each subspace H/S matrix       19.55 Mb     (    1132, 1132)
        Each <psi_i|beta_j> matrix      2.83 Mb     (     656,  283)
        Arrays for rho mixing          37.50 Mb     (  245760,   10)

     Check: negative/imaginary core charge=   -0.000002    0.000000

     Initial potential from superposition of free atoms
     Check: negative starting charge=(component1):   -0.000983
     Check: negative starting charge=(component2):   -0.000519

     starting charge  365.99096, renormalised to  366.00000

     negative rho (up, down):  9.828E-04 5.191E-04
 
     Adding external electric field

     Computed dipole along edir(3) : 
        Dipole               -0.0011 Ry au,         -0.0027 Debye
        Dipole field         -0.0000 Ry au
 
        Potential amp.        0.0002 Ry
        Total length         73.6798 bohr
 
 
     Adding external electric field

     Computed dipole along edir(3) : 
        Dipole               -0.0011 Ry au,         -0.0027 Debye
        Dipole field         -0.0000 Ry au
 
        Potential amp.        0.0002 Ry
        Total length         73.6798 bohr
 
     Starting wfc are  328 randomized atomic wfcs

     total cpu time spent up to now is       60.5 secs

     Self-consistent Calculation

     iteration #  1     ecut=    44.10 Ry     beta=0.10
     Davidson diagonalization with overlap
  python dir          : /home/vossj/suncat/lib/python2.7/site-packages/espresso
  espresso dir        : /home/vossj/suncat/esdld/espresso-dynpy-beef/bin
  pseudo dir          : /home/alatimer/bin/psp/esp_psp_w_gbrvRu/
  ase-espresso py git : ffa2778-git



     Program PWSCF v.5.1rc2 (svn rev. ) starts on 23Mar2018 at  9: 9:41 

     This program is part of the open-source Quantum ESPRESSO suite
     for quantum simulation of materials; please cite
         "P. Giannozzi et al., J. Phys.:Condens. Matter 21 395502 (2009);
          URL http://www.quantum-espresso.org", 
     in publications or presentations arising from this work. More details at
     http://www.quantum-espresso.org/quote

     Parallel version (MPI), running on    16 processors
     R & G space division:  proc/nbgrp/npool/nimage =      16
     Reading input from pw.inp
     Message from routine read_cards :
     DEPRECATED: no units specified in CELL_PARAMETERS card

     Current dimensions of program PWSCF are:
     Max number of different atomic species (ntypx) = 10
     Max number of k-points (npk) =  40000
     Max angular momentum in pseudopotentials (lmaxx) =  3
     Presently no symmetry can be used with electric field


     IMPORTANT: XC functional enforced from input :
     Exchange-correlation      = RPBE ( 1  4 28  4 0)
     Any further DFT definition will be discarded
     Please, verify this is what you really want

               file Ni.UPF: wavefunction(s)  3D renormalized

     Subspace diagonalization in iterative solution of the eigenvalue problem:
     a serial algorithm will be used

 
     Parallelization info
     --------------------
     sticks:   dense  smooth     PW     G-vecs:    dense   smooth      PW
     Min         363     145     39               122687    31011    4299
     Max         364     146     40               122712    31054    4310
     Sum        5823    2325    627              1963319   496527   68879
 
     Generating pointlists ...
     new r_m :   0.4125 (alat units)  0.7795 (a.u.) for type    1
     new r_m :   0.4125 (alat units)  0.7795 (a.u.) for type    2


     bravais-lattice index     =            0
     lattice parameter (alat)  =       1.8897  a.u.
     unit-cell volume          =   12553.3819 (a.u.)^3
     number of atoms/cell      =           37
     number of atomic types    =            2
     number of electrons       =       366.00
     number of Kohn-Sham states=          283
     kinetic-energy cutoff     =      44.0992  Ry
     charge density cutoff     =     440.9919  Ry
     convergence threshold     =      7.3E-07
     mixing beta               =       0.1000
     number of iterations used =           10  plain     mixing
     Exchange-correlation      = RPBE ( 1  4 28  4 0)
     nstep                     =           50


     celldm(1)=   1.889726  celldm(2)=   0.000000  celldm(3)=   0.000000
     celldm(4)=   0.000000  celldm(5)=   0.000000  celldm(6)=   0.000000

     crystal axes: (cart. coord. in units of alat)
               a(1) = (   6.162925   0.000000   0.000000 )  
               a(2) = (   0.000000   7.548011   0.000000 )  
               a(3) = (   0.000000   0.000000  39.989385 )  

     reciprocal axes: (cart. coord. in units 2 pi/alat)
               b(1) = (  0.162261  0.000000  0.000000 )  
               b(2) = (  0.000000  0.132485  0.000000 )  
               b(3) = (  0.000000  0.000000  0.025007 )  


     PseudoPot. # 1 for Ni read from file:
     /home/alatimer/bin/psp/esp_psp_w_gbrvRu/Ni.UPF
     MD5 check sum: 8b2449ee0060d9c33484ccd47bb60870
     Pseudo is Ultrasoft + core correction, Zval = 10.0
     Generated using "atomic" code by A. Dal Corso  v.5.0.2 svn rev. 9415
     Using radial grid of 1195 points,  6 beta functions with: 
                l(1) =   0
                l(2) =   0
                l(3) =   1
                l(4) =   1
                l(5) =   2
                l(6) =   2
     Q(r) pseudized with 0 coefficients 


     PseudoPot. # 2 for  O read from file:
     /home/alatimer/bin/psp/esp_psp_w_gbrvRu/O.UPF
     MD5 check sum: e057bbcf3229fb5d8c36c0c92f9568b4
     Pseudo is Ultrasoft + core correction, Zval =  6.0
     Generated using "atomic" code by A. Dal Corso  v.5.0.2 svn rev. 9415
     Using radial grid of 1095 points,  4 beta functions with: 
                l(1) =   0
                l(2) =   0
                l(3) =   1
                l(4) =   1
     Q(r) pseudized with 0 coefficients 


     atomic species   valence    mass     pseudopotential
        Ni1           10.00    58.69340     Ni( 1.00)
        O1             6.00    15.99940      O( 1.00)

     Starting magnetic structure 
     atomic species   magnetization
        Ni1          0.300
        O1           0.500

     No symmetry found



   Cartesian axes

     site n.     atom                  positions (alat units)
         1           Ni1 tau(   1) = (   0.0000000   1.2580018  23.9893847  )
         2           Ni1 tau(   2) = (   0.0000000   3.7740055  23.9893847  )
         3           Ni1 tau(   3) = (   0.0000000   6.2900092  23.9893847  )
         4           Ni1 tau(   4) = (   4.1086168   0.0000000  23.2630770  )
         5           Ni1 tau(   5) = (   4.1086168   2.5160037  23.2630770  )
         6           Ni1 tau(   6) = (   4.1086168   5.0320073  23.2630770  )
         7           Ni1 tau(   7) = (   2.0543084   1.2580018  22.5367693  )
         8           Ni1 tau(   8) = (   2.0543084   3.7740055  22.5367693  )
         9           Ni1 tau(   9) = (   2.0543084   6.2900092  22.5367693  )
        10           Ni1 tau(  10) = (   0.0000000   0.0000000  21.8104616  )
        11           Ni1 tau(  11) = (   0.0000000   2.5160037  21.8104616  )
        12           Ni1 tau(  12) = (   0.0000000   5.0320073  21.8104616  )
        13           Ni1 tau(  13) = (   4.1086168   1.2580018  21.0841539  )
        14           Ni1 tau(  14) = (   4.1086168   3.7740055  21.0841539  )
        15           Ni1 tau(  15) = (   4.1086168   6.2900092  21.0841539  )
        16           Ni1 tau(  16) = (   2.0543084   0.0000000  20.3578462  )
        17           Ni1 tau(  17) = (   2.0543084   2.5160037  20.3578462  )
        18           Ni1 tau(  18) = (   2.0543084   5.0320073  20.3578462  )
        19           Ni1 tau(  19) = (   0.0000000   1.2580018  19.6315385  )
        20           Ni1 tau(  20) = (   0.0000000   3.7740055  19.6315385  )
        21           Ni1 tau(  21) = (   0.0000000   6.2900092  19.6315385  )
        22           Ni1 tau(  22) = (   4.1086168   0.0000000  18.9052308  )
        23           Ni1 tau(  23) = (   4.1086168   2.5160037  18.9052308  )
        24           Ni1 tau(  24) = (   4.1086168   5.0320073  18.9052308  )
        25           Ni1 tau(  25) = (   2.0543084   1.2580018  18.1789231  )
        26           Ni1 tau(  26) = (   2.0543084   3.7740055  18.1789231  )
        27           Ni1 tau(  27) = (   2.0543084   6.2900092  18.1789231  )
        28           Ni1 tau(  28) = (   0.0000000   0.0000000  17.4526154  )
        29           Ni1 tau(  29) = (   0.0000000   2.5160037  17.4526154  )
        30           Ni1 tau(  30) = (   0.0000000   5.0320073  17.4526154  )
        31           Ni1 tau(  31) = (   4.1086168   1.2580018  16.7263077  )
        32           Ni1 tau(  32) = (   4.1086168   3.7740055  16.7263077  )
        33           Ni1 tau(  33) = (   4.1086168   6.2900092  16.7263077  )
        34           Ni1 tau(  34) = (   2.0543084   0.0000000  16.0000000  )
        35           Ni1 tau(  35) = (   2.0543084   2.5160037  16.0000000  )
        36           Ni1 tau(  36) = (   2.0543084   5.0320073  16.0000000  )
        37           O1  tau(  37) = (   1.9993671   2.6166424  23.7893806  )

     number of k points=    10  Fermi-Dirac smearing, width (Ry)=  0.0073
                       cart. coord. in units 2pi/alat
        k(    1) = (   0.0000000   0.0000000   0.0000000), wk =   0.1111111
        k(    2) = (   0.0000000   0.0441617   0.0000000), wk =   0.2222222
        k(    3) = (   0.0540869   0.0000000   0.0000000), wk =   0.2222222
        k(    4) = (   0.0540869   0.0441617   0.0000000), wk =   0.2222222
        k(    5) = (   0.0540869  -0.0441617   0.0000000), wk =   0.2222222
        k(    6) = (   0.0000000   0.0000000   0.0000000), wk =   0.1111111
        k(    7) = (   0.0000000   0.0441617   0.0000000), wk =   0.2222222
        k(    8) = (   0.0540869   0.0000000   0.0000000), wk =   0.2222222
        k(    9) = (   0.0540869   0.0441617   0.0000000), wk =   0.2222222
        k(   10) = (   0.0540869  -0.0441617   0.0000000), wk =   0.2222222

     Dense  grid:  1963319 G-vectors     FFT dimensions: (  80,  96, 512)

     Smooth grid:   496527 G-vectors     FFT dimensions: (  50,  64, 320)

     Largest allocated arrays     est. size (Mb)     dimensions
        Kohn-Sham Wavefunctions        16.83 Mb     (    3897,  283)
        NL pseudopotentials            39.01 Mb     (    3897,  656)
        Each V/rho on FFT grid          7.50 Mb     (  245760,   2)
        Each G-vector array             0.94 Mb     (  122712)
        G-vector shells                 0.42 Mb     (   55687)
     Largest temporary arrays     est. size (Mb)     dimensions
        Auxiliary wavefunctions        67.31 Mb     (    3897, 1132)
        Each subspace H/S matrix       19.55 Mb     (    1132, 1132)
        Each <psi_i|beta_j> matrix      2.83 Mb     (     656,  283)
        Arrays for rho mixing          37.50 Mb     (  245760,   10)

     Check: negative/imaginary core charge=   -0.000002    0.000000

     Initial potential from superposition of free atoms
     Check: negative starting charge=(component1):   -0.000983
     Check: negative starting charge=(component2):   -0.000519

     starting charge  365.99096, renormalised to  366.00000

     negative rho (up, down):  9.828E-04 5.191E-04
 
     Adding external electric field

     Computed dipole along edir(3) : 
        Dipole               -0.0011 Ry au,         -0.0027 Debye
        Dipole field         -0.0000 Ry au
 
        Potential amp.        0.0002 Ry
        Total length         73.6798 bohr
 
 
     Adding external electric field

     Computed dipole along edir(3) : 
        Dipole               -0.0011 Ry au,         -0.0027 Debye
        Dipole field         -0.0000 Ry au
 
        Potential amp.        0.0002 Ry
        Total length         73.6798 bohr
 
     Starting wfc are  328 randomized atomic wfcs

     total cpu time spent up to now is       60.2 secs

     Self-consistent Calculation

     iteration #  1     ecut=    44.10 Ry     beta=0.10
     Davidson diagonalization with overlap
     ethr =  1.00E-02,  avg # of iterations =  8.4

     negative rho (up, down):  9.044E-04 4.655E-04
 
     Adding external electric field

     Computed dipole along edir(3) : 
        Dipole                0.1658 Ry au,          0.4215 Debye
        Dipole field          0.0002 Ry au
 
        Potential amp.       -0.0245 Ry
        Total length         73.6798 bohr
 
 
     Adding external electric field

     Computed dipole along edir(3) : 
        Dipole                0.1658 Ry au,          0.4215 Debye
        Dipole field          0.0002 Ry au
 
        Potential amp.       -0.0245 Ry
        Total length         73.6798 bohr
 
 
     Magnetic moment per site:
     atom:    1    charge:    3.9308    magn:    1.1522    constr:    0.0000
     atom:    2    charge:    3.9316    magn:    1.1516    constr:    0.0000
     atom:    3    charge:    3.9306    magn:    1.1514    constr:    0.0000
     atom:    4    charge:    3.9528    magn:    1.1273    constr:    0.0000
     atom:    5    charge:    3.9525    magn:    1.1286    constr:    0.0000
     atom:    6    charge:    3.9533    magn:    1.1269    constr:    0.0000
     atom:    7    charge:    3.9575    magn:    1.1252    constr:    0.0000
     atom:    8    charge:    3.9536    magn:    1.1302    constr:    0.0000
     atom:    9    charge:    3.9641    magn:    1.1161    constr:    0.0000
     atom:   10    charge:    3.9712    magn:    1.1117    constr:    0.0000
     atom:   11    charge:    3.9740    magn:    1.1096    constr:    0.0000
     atom:   12    charge:    3.9713    magn:    1.1118    constr:    0.0000
     atom:   13    charge:    3.9737    magn:    1.1082    constr:    0.0000
     atom:   14    charge:    3.9737    magn:    1.1084    constr:    0.0000
     atom:   15    charge:    3.9742    magn:    1.1075    constr:    0.0000
     atom:   16    charge:    3.9762    magn:    1.1052    constr:    0.0000
     atom:   17    charge:    3.9763    magn:    1.1053    constr:    0.0000
     atom:   18    charge:    3.9764    magn:    1.1047    constr:    0.0000
     atom:   19    charge:    3.9748    magn:    1.1060    constr:    0.0000
     atom:   20    charge:    3.9748    magn:    1.1060    constr:    0.0000
     atom:   21    charge:    3.9750    magn:    1.1058    constr:    0.0000
     atom:   22    charge:    3.9741    magn:    1.1078    constr:    0.0000
     atom:   23    charge:    3.9738    magn:    1.1079    constr:    0.0000
     atom:   24    charge:    3.9741    magn:    1.1078    constr:    0.0000
     atom:   25    charge:    3.9702    magn:    1.1102    constr:    0.0000
     atom:   26    charge:    3.9701    magn:    1.1102    constr:    0.0000
     atom:   27    charge:    3.9706    magn:    1.1095    constr:    0.0000
     atom:   28    charge:    3.9629    magn:    1.1143    constr:    0.0000
     atom:   29    charge:    3.9628    magn:    1.1145    constr:    0.0000
     atom:   30    charge:    3.9629    magn:    1.1144    constr:    0.0000
     atom:   31    charge:    3.9530    magn:    1.1272    constr:    0.0000
     atom:   32    charge:    3.9529    magn:    1.1273    constr:    0.0000
     atom:   33    charge:    3.9530    magn:    1.1270    constr:    0.0000
     atom:   34    charge:    3.9297    magn:    1.1501    constr:    0.0000
     atom:   35    charge:    3.9301    magn:    1.1499    constr:    0.0000
     atom:   36    charge:    3.9299    magn:    1.1500    constr:    0.0000
     atom:   37    charge:    2.0221    magn:    0.9426    constr:    0.0000

     total cpu time spent up to now is      275.2 secs

     total energy              =   -3652.77706270 Ry
     Harris-Foulkes estimate   =   -3654.94997459 Ry
     estimated scf accuracy    <      16.79191019 Ry

     total magnetization       =    37.81 Bohr mag/cell
     absolute magnetization    =    37.87 Bohr mag/cell

     iteration #  2     ecut=    44.10 Ry     beta=0.10
     Davidson diagonalization with overlap
     ethr =  4.59E-03,  avg # of iterations =  3.1

     negative rho (up, down):  8.937E-04 5.218E-04
 
     Adding external electric field

     Computed dipole along edir(3) : 
        Dipole               -0.3276 Ry au,         -0.8326 Debye
        Dipole field         -0.0003 Ry au
 
        Potential amp.        0.0483 Ry
        Total length         73.6798 bohr
 
 
     Adding external electric field

     Computed dipole along edir(3) : 
        Dipole               -0.3276 Ry au,         -0.8326 Debye
        Dipole field         -0.0003 Ry au
 
        Potential amp.        0.0483 Ry
        Total length         73.6798 bohr
 
 
     Magnetic moment per site:
     atom:    1    charge:    3.9526    magn:    1.1256    constr:    0.0000
     atom:    2    charge:    3.9533    magn:    1.1250    constr:    0.0000
     atom:    3    charge:    3.9523    magn:    1.1248    constr:    0.0000
     atom:    4    charge:    3.9689    magn:    1.1025    constr:    0.0000
     atom:    5    charge:    3.9685    magn:    1.1043    constr:    0.0000
     atom:    6    charge:    3.9693    magn:    1.1021    constr:    0.0000
     atom:    7    charge:    3.9682    magn:    1.1044    constr:    0.0000
     atom:    8    charge:    3.9649    magn:    1.1093    constr:    0.0000
     atom:    9    charge:    3.9735    magn:    1.0950    constr:    0.0000
     atom:   10    charge:    3.9715    magn:    1.0967    constr:    0.0000
     atom:   11    charge:    3.9738    magn:    1.0949    constr:    0.0000
     atom:   12    charge:    3.9717    magn:    1.0968    constr:    0.0000
     atom:   13    charge:    3.9583    magn:    1.1063    constr:    0.0000
     atom:   14    charge:    3.9586    magn:    1.1063    constr:    0.0000
     atom:   15    charge:    3.9578    magn:    1.1063    constr:    0.0000
     atom:   16    charge:    3.9514    magn:    1.1109    constr:    0.0000
     atom:   17    charge:    3.9518    magn:    1.1109    constr:    0.0000
     atom:   18    charge:    3.9517    magn:    1.1101    constr:    0.0000
     atom:   19    charge:    3.9489    magn:    1.1126    constr:    0.0000
     atom:   20    charge:    3.9490    magn:    1.1126    constr:    0.0000
     atom:   21    charge:    3.9491    magn:    1.1125    constr:    0.0000
     atom:   22    charge:    3.9545    magn:    1.1094    constr:    0.0000
     atom:   23    charge:    3.9545    magn:    1.1093    constr:    0.0000
     atom:   24    charge:    3.9545    magn:    1.1095    constr:    0.0000
     atom:   25    charge:    3.9660    magn:    1.0990    constr:    0.0000
     atom:   26    charge:    3.9660    magn:    1.0990    constr:    0.0000
     atom:   27    charge:    3.9661    magn:    1.0986    constr:    0.0000
     atom:   28    charge:    3.9689    magn:    1.0958    constr:    0.0000
     atom:   29    charge:    3.9689    magn:    1.0960    constr:    0.0000
     atom:   30    charge:    3.9689    magn:    1.0959    constr:    0.0000
     atom:   31    charge:    3.9679    magn:    1.1032    constr:    0.0000
     atom:   32    charge:    3.9679    magn:    1.1032    constr:    0.0000
     atom:   33    charge:    3.9680    magn:    1.1030    constr:    0.0000
     atom:   34    charge:    3.9509    magn:    1.1237    constr:    0.0000
     atom:   35    charge:    3.9513    magn:    1.1235    constr:    0.0000
     atom:   36    charge:    3.9511    magn:    1.1235    constr:    0.0000
     atom:   37    charge:    2.0300    magn:    0.9259    constr:    0.0000

     total cpu time spent up to now is      410.3 secs

     total energy              =   -3653.01845413 Ry
     Harris-Foulkes estimate   =   -3658.02819409 Ry
     estimated scf accuracy    <     108.68411533 Ry

     total magnetization       =    43.00 Bohr mag/cell
     absolute magnetization    =    43.12 Bohr mag/cell

     iteration #  3     ecut=    44.10 Ry     beta=0.10
     Davidson diagonalization with overlap
     ethr =  4.59E-03,  avg # of iterations =  1.5

     negative rho (up, down):  8.940E-04 5.943E-04
 
     Adding external electric field

     Computed dipole along edir(3) : 
        Dipole                0.4931 Ry au,          1.2533 Debye
        Dipole field          0.0005 Ry au
 
        Potential amp.       -0.0727 Ry
        Total length         73.6798 bohr
 
 
     Adding external electric field

     Computed dipole along edir(3) : 
        Dipole                0.4931 Ry au,          1.2533 Debye
        Dipole field          0.0005 Ry au
 
        Potential amp.       -0.0727 Ry
        Total length         73.6798 bohr
 
 
     Magnetic moment per site:
     atom:    1    charge:    3.9588    magn:    1.1146    constr:    0.0000
     atom:    2    charge:    3.9594    magn:    1.1141    constr:    0.0000
     atom:    3    charge:    3.9585    magn:    1.1138    constr:    0.0000
     atom:    4    charge:    3.9653    magn:    1.0989    constr:    0.0000
     atom:    5    charge:    3.9654    magn:    1.1002    constr:    0.0000
     atom:    6    charge:    3.9657    magn:    1.0986    constr:    0.0000
     atom:    7    charge:    3.9635    magn:    1.1013    constr:    0.0000
     atom:    8    charge:    3.9616    magn:    1.1051    constr:    0.0000
     atom:    9    charge:    3.9656    magn:    1.0947    constr:    0.0000
     atom:   10    charge:    3.9650    magn:    1.0948    constr:    0.0000
     atom:   11    charge:    3.9670    magn:    1.0932    constr:    0.0000
     atom:   12    charge:    3.9652    magn:    1.0948    constr:    0.0000
     atom:   13    charge:    3.9568    magn:    1.1007    constr:    0.0000
     atom:   14    charge:    3.9570    magn:    1.1007    constr:    0.0000
     atom:   15    charge:    3.9565    magn:    1.1004    constr:    0.0000
     atom:   16    charge:    3.9531    magn:    1.1026    constr:    0.0000
     atom:   17    charge:    3.9534    magn:    1.1028    constr:    0.0000
     atom:   18    charge:    3.9535    magn:    1.1017    constr:    0.0000
     atom:   19    charge:    3.9519    magn:    1.1033    constr:    0.0000
     atom:   20    charge:    3.9520    magn:    1.1033    constr:    0.0000
     atom:   21    charge:    3.9521    magn:    1.1031    constr:    0.0000
     atom:   22    charge:    3.9571    magn:    1.1001    constr:    0.0000
     atom:   23    charge:    3.9571    magn:    1.0999    constr:    0.0000
     atom:   24    charge:    3.9572    magn:    1.1002    constr:    0.0000
     atom:   25    charge:    3.9661    magn:    1.0914    constr:    0.0000
     atom:   26    charge:    3.9661    magn:    1.0914    constr:    0.0000
     atom:   27    charge:    3.9660    magn:    1.0909    constr:    0.0000
     atom:   28    charge:    3.9686    magn:    1.0886    constr:    0.0000
     atom:   29    charge:    3.9686    magn:    1.0888    constr:    0.0000
     atom:   30    charge:    3.9686    magn:    1.0886    constr:    0.0000
     atom:   31    charge:    3.9717    magn:    1.0929    constr:    0.0000
     atom:   32    charge:    3.9717    magn:    1.0929    constr:    0.0000
     atom:   33    charge:    3.9717    magn:    1.0926    constr:    0.0000
     atom:   34    charge:    3.9599    magn:    1.1102    constr:    0.0000
     atom:   35    charge:    3.9602    magn:    1.1101    constr:    0.0000
     atom:   36    charge:    3.9600    magn:    1.1101    constr:    0.0000
     atom:   37    charge:    2.0313    magn:    0.9182    constr:    0.0000

     total cpu time spent up to now is      535.0 secs

     total energy              =   -3654.48116654 Ry
     Harris-Foulkes estimate   =   -3655.23753481 Ry
     estimated scf accuracy    <      32.01715399 Ry

     total magnetization       =    38.30 Bohr mag/cell
     absolute magnetization    =    38.38 Bohr mag/cell

     iteration #  4     ecut=    44.10 Ry     beta=0.10
     Davidson diagonalization with overlap
     ethr =  4.59E-03,  avg # of iterations =  1.0

     negative rho (up, down):  8.983E-04 6.663E-04
 
     Adding external electric field

     Computed dipole along edir(3) : 
        Dipole               -0.0929 Ry au,         -0.2361 Debye
        Dipole field         -0.0001 Ry au
 
        Potential amp.        0.0137 Ry
        Total length         73.6798 bohr
 
 
     Adding external electric field

     Computed dipole along edir(3) : 
        Dipole               -0.0929 Ry au,         -0.2361 Debye
        Dipole field         -0.0001 Ry au
 
        Potential amp.        0.0137 Ry
        Total length         73.6798 bohr
 
 
     Magnetic moment per site:
     atom:    1    charge:    3.9720    magn:    1.0927    constr:    0.0000
     atom:    2    charge:    3.9724    magn:    1.0924    constr:    0.0000
     atom:    3    charge:    3.9718    magn:    1.0917    constr:    0.0000
     atom:    4    charge:    3.9670    magn:    1.0852    constr:    0.0000
     atom:    5    charge:    3.9670    magn:    1.0866    constr:    0.0000
     atom:    6    charge:    3.9673    magn:    1.0848    constr:    0.0000
     atom:    7    charge:    3.9616    magn:    1.0903    constr:    0.0000
     atom:    8    charge:    3.9609    magn:    1.0931    constr:    0.0000
     atom:    9    charge:    3.9616    magn:    1.0852    constr:    0.0000
     atom:   10    charge:    3.9614    magn:    1.0843    constr:    0.0000
     atom:   11    charge:    3.9630    magn:    1.0829    constr:    0.0000
     atom:   12    charge:    3.9616    magn:    1.0843    constr:    0.0000
     atom:   13    charge:    3.9590    magn:    1.0862    constr:    0.0000
     atom:   14    charge:    3.9590    magn:    1.0863    constr:    0.0000
     atom:   15    charge:    3.9590    magn:    1.0856    constr:    0.0000
     atom:   16    charge:    3.9583    magn:    1.0858    constr:    0.0000
     atom:   17    charge:    3.9586    magn:    1.0861    constr:    0.0000
     atom:   18    charge:    3.9587    magn:    1.0848    constr:    0.0000
     atom:   19    charge:    3.9572    magn:    1.0867    constr:    0.0000
     atom:   20    charge:    3.9572    magn:    1.0867    constr:    0.0000
     atom:   21    charge:    3.9573    magn:    1.0865    constr:    0.0000
     atom:   22    charge:    3.9593    magn:    1.0858    constr:    0.0000
     atom:   23    charge:    3.9591    magn:    1.0857    constr:    0.0000
     atom:   24    charge:    3.9593    magn:    1.0859    constr:    0.0000
     atom:   25    charge:    3.9609    magn:    1.0824    constr:    0.0000
     atom:   26    charge:    3.9609    magn:    1.0824    constr:    0.0000
     atom:   27    charge:    3.9608    magn:    1.0818    constr:    0.0000
     atom:   28    charge:    3.9610    magn:    1.0821    constr:    0.0000
     atom:   29    charge:    3.9609    magn:    1.0825    constr:    0.0000
     atom:   30    charge:    3.9610    magn:    1.0821    constr:    0.0000
     atom:   31    charge:    3.9682    magn:    1.0835    constr:    0.0000
     atom:   32    charge:    3.9682    magn:    1.0836    constr:    0.0000
     atom:   33    charge:    3.9682    magn:    1.0832    constr:    0.0000
     atom:   34    charge:    3.9694    magn:    1.0914    constr:    0.0000
     atom:   35    charge:    3.9696    magn:    1.0914    constr:    0.0000
     atom:   36    charge:    3.9695    magn:    1.0914    constr:    0.0000
     atom:   37    charge:    2.0341    magn:    0.9042    constr:    0.0000

     total cpu time spent up to now is      657.0 secs

     total energy              =   -3654.50964562 Ry
     Harris-Foulkes estimate   =   -3655.41830657 Ry
     estimated scf accuracy    <      83.92366861 Ry

     total magnetization       =    38.28 Bohr mag/cell
     absolute magnetization    =    38.43 Bohr mag/cell

     iteration #  5     ecut=    44.10 Ry     beta=0.10
     Davidson diagonalization with overlap
     ethr =  4.59E-03,  avg # of iterations =  1.0

     negative rho (up, down):  8.828E-04 5.921E-04
 
     Adding external electric field

     Computed dipole along edir(3) : 
        Dipole                0.1379 Ry au,          0.3504 Debye
        Dipole field          0.0001 Ry au
 
        Potential amp.       -0.0203 Ry
        Total length         73.6798 bohr
 
 
     Adding external electric field

     Computed dipole along edir(3) : 
        Dipole                0.1379 Ry au,          0.3504 Debye
        Dipole field          0.0001 Ry au
 
        Potential amp.       -0.0203 Ry
        Total length         73.6798 bohr
 
 
     Magnetic moment per site:
     atom:    1    charge:    3.9987    magn:    0.9914    constr:    0.0000
     atom:    2    charge:    3.9965    magn:    0.9931    constr:    0.0000
     atom:    3    charge:    4.0021    magn:    0.9859    constr:    0.0000
     atom:    4    charge:    3.9808    magn:    0.9909    constr:    0.0000
     atom:    5    charge:    3.9748    magn:    0.9983    constr:    0.0000
     atom:    6    charge:    3.9802    magn:    0.9913    constr:    0.0000
     atom:    7    charge:    3.9670    magn:    1.0044    constr:    0.0000
     atom:    8    charge:    3.9627    magn:    1.0094    constr:    0.0000
     atom:    9    charge:    3.9820    magn:    0.9850    constr:    0.0000
     atom:   10    charge:    3.9619    magn:    0.9982    constr:    0.0000
     atom:   11    charge:    3.9641    magn:    0.9961    constr:    0.0000
     atom:   12    charge:    3.9609    magn:    0.9995    constr:    0.0000
     atom:   13    charge:    3.9590    magn:    1.0022    constr:    0.0000
     atom:   14    charge:    3.9588    magn:    1.0028    constr:    0.0000
     atom:   15    charge:    3.9602    magn:    1.0000    constr:    0.0000
     atom:   16    charge:    3.9631    magn:    0.9973    constr:    0.0000
     atom:   17    charge:    3.9606    magn:    1.0003    constr:    0.0000
     atom:   18    charge:    3.9624    magn:    0.9962    constr:    0.0000
     atom:   19    charge:    3.9622    magn:    0.9986    constr:    0.0000
     atom:   20    charge:    3.9619    magn:    0.9989    constr:    0.0000
     atom:   21    charge:    3.9627    magn:    0.9977    constr:    0.0000
     atom:   22    charge:    3.9566    magn:    1.0036    constr:    0.0000
     atom:   23    charge:    3.9555    magn:    1.0042    constr:    0.0000
     atom:   24    charge:    3.9565    magn:    1.0039    constr:    0.0000
     atom:   25    charge:    3.9506    magn:    1.0046    constr:    0.0000
     atom:   26    charge:    3.9504    magn:    1.0049    constr:    0.0000
     atom:   27    charge:    3.9511    magn:    1.0027    constr:    0.0000
     atom:   28    charge:    3.9677    magn:    0.9925    constr:    0.0000
     atom:   29    charge:    3.9676    magn:    0.9935    constr:    0.0000
     atom:   30    charge:    3.9676    magn:    0.9926    constr:    0.0000
     atom:   31    charge:    3.9719    magn:    0.9974    constr:    0.0000
     atom:   32    charge:    3.9719    magn:    0.9975    constr:    0.0000
     atom:   33    charge:    3.9724    magn:    0.9963    constr:    0.0000
     atom:   34    charge:    4.0123    magn:    0.9742    constr:    0.0000
     atom:   35    charge:    4.0116    magn:    0.9750    constr:    0.0000
     atom:   36    charge:    4.0120    magn:    0.9744    constr:    0.0000
     atom:   37    charge:    2.0483    magn:    0.8126    constr:    0.0000

     total cpu time spent up to now is      779.1 secs

     total energy              =   -3655.05064517 Ry
     Harris-Foulkes estimate   =   -3654.94432226 Ry
     estimated scf accuracy    <       3.77049251 Ry

     total magnetization       =    37.72 Bohr mag/cell
     absolute magnetization    =    37.86 Bohr mag/cell

     iteration #  6     ecut=    44.10 Ry     beta=0.10
     Davidson diagonalization with overlap
     ethr =  1.03E-03,  avg # of iterations =  6.5

     negative rho (up, down):  8.737E-04 5.483E-04
 
     Adding external electric field

     Computed dipole along edir(3) : 
        Dipole               -0.1580 Ry au,         -0.4015 Debye
        Dipole field         -0.0002 Ry au
 
        Potential amp.        0.0233 Ry
        Total length         73.6798 bohr
 
 
     Adding external electric field

     Computed dipole along edir(3) : 
        Dipole               -0.1580 Ry au,         -0.4015 Debye
        Dipole field         -0.0002 Ry au
 
        Potential amp.        0.0233 Ry
        Total length         73.6798 bohr
 
 
     Magnetic moment per site:
     atom:    1    charge:    4.0256    magn:    0.8958    constr:    0.0000
     atom:    2    charge:    4.0252    magn:    0.8959    constr:    0.0000
     atom:    3    charge:    4.0216    magn:    0.8957    constr:    0.0000
     atom:    4    charge:    3.9884    magn:    0.9074    constr:    0.0000
     atom:    5    charge:    3.9867    magn:    0.9123    constr:    0.0000
     atom:    6    charge:    3.9891    magn:    0.9065    constr:    0.0000
     atom:    7    charge:    3.9712    magn:    0.9246    constr:    0.0000
     atom:    8    charge:    3.9689    magn:    0.9278    constr:    0.0000
     atom:    9    charge:    3.9757    magn:    0.9110    constr:    0.0000
     atom:   10    charge:    3.9565    magn:    0.9221    constr:    0.0000
     atom:   11    charge:    3.9619    magn:    0.9167    constr:    0.0000
     atom:   12    charge:    3.9566    magn:    0.9228    constr:    0.0000
     atom:   13    charge:    3.9600    magn:    0.9222    constr:    0.0000
     atom:   14    charge:    3.9605    magn:    0.9225    constr:    0.0000
     atom:   15    charge:    3.9591    magn:    0.9213    constr:    0.0000
     atom:   16    charge:    3.9638    magn:    0.9167    constr:    0.0000
     atom:   17    charge:    3.9643    magn:    0.9177    constr:    0.0000
     atom:   18    charge:    3.9636    magn:    0.9143    constr:    0.0000
     atom:   19    charge:    3.9650    magn:    0.9168    constr:    0.0000
     atom:   20    charge:    3.9651    magn:    0.9168    constr:    0.0000
     atom:   21    charge:    3.9645    magn:    0.9165    constr:    0.0000
     atom:   22    charge:    3.9618    magn:    0.9198    constr:    0.0000
     atom:   23    charge:    3.9616    magn:    0.9195    constr:    0.0000
     atom:   24    charge:    3.9619    magn:    0.9201    constr:    0.0000
     atom:   25    charge:    3.9530    magn:    0.9224    constr:    0.0000
     atom:   26    charge:    3.9529    magn:    0.9225    constr:    0.0000
     atom:   27    charge:    3.9531    magn:    0.9199    constr:    0.0000
     atom:   28    charge:    3.9751    magn:    0.9064    constr:    0.0000
     atom:   29    charge:    3.9756    magn:    0.9075    constr:    0.0000
     atom:   30    charge:    3.9752    magn:    0.9064    constr:    0.0000
     atom:   31    charge:    3.9878    magn:    0.9065    constr:    0.0000
     atom:   32    charge:    3.9880    magn:    0.9065    constr:    0.0000
     atom:   33    charge:    3.9879    magn:    0.9054    constr:    0.0000
     atom:   34    charge:    4.0183    magn:    0.8940    constr:    0.0000
     atom:   35    charge:    4.0178    magn:    0.8949    constr:    0.0000
     atom:   36    charge:    4.0182    magn:    0.8942    constr:    0.0000
     atom:   37    charge:    2.0636    magn:    0.7255    constr:    0.0000

     total cpu time spent up to now is      929.8 secs

     total energy              =   -3655.61076238 Ry
     Harris-Foulkes estimate   =   -3655.56843691 Ry
     estimated scf accuracy    <      25.72398758 Ry

     total magnetization       =    37.39 Bohr mag/cell
     absolute magnetization    =    37.74 Bohr mag/cell

     iteration #  7     ecut=    44.10 Ry     beta=0.10
     Davidson diagonalization with overlap
     ethr =  1.03E-03,  avg # of iterations =  4.2

     negative rho (up, down):  8.675E-04 5.659E-04
 
     Adding external electric field

     Computed dipole along edir(3) : 
        Dipole               -0.0426 Ry au,         -0.1083 Debye
        Dipole field         -0.0000 Ry au
 
        Potential amp.        0.0063 Ry
        Total length         73.6798 bohr
 
 
     Adding external electric field

     Computed dipole along edir(3) : 
        Dipole               -0.0426 Ry au,         -0.1083 Debye
        Dipole field         -0.0000 Ry au
 
        Potential amp.        0.0063 Ry
        Total length         73.6798 bohr
 
 
     Magnetic moment per site:
     atom:    1    charge:    4.0102    magn:    0.9040    constr:    0.0000
     atom:    2    charge:    4.0101    magn:    0.9038    constr:    0.0000
     atom:    3    charge:    4.0097    magn:    0.9012    constr:    0.0000
     atom:    4    charge:    3.9878    magn:    0.9028    constr:    0.0000
     atom:    5    charge:    3.9876    magn:    0.9068    constr:    0.0000
     atom:    6    charge:    3.9882    magn:    0.9021    constr:    0.0000
     atom:    7    charge:    3.9738    magn:    0.9176    constr:    0.0000
     atom:    8    charge:    3.9730    magn:    0.9197    constr:    0.0000
     atom:    9    charge:    3.9737    magn:    0.9069    constr:    0.0000
     atom:   10    charge:    3.9602    magn:    0.9143    constr:    0.0000
     atom:   11    charge:    3.9639    magn:    0.9099    constr:    0.0000
     atom:   12    charge:    3.9605    magn:    0.9148    constr:    0.0000
     atom:   13    charge:    3.9628    magn:    0.9148    constr:    0.0000
     atom:   14    charge:    3.9631    magn:    0.9152    constr:    0.0000
     atom:   15    charge:    3.9622    magn:    0.9138    constr:    0.0000
     atom:   16    charge:    3.9640    magn:    0.9111    constr:    0.0000
     atom:   17    charge:    3.9649    magn:    0.9118    constr:    0.0000
     atom:   18    charge:    3.9641    magn:    0.9085    constr:    0.0000
     atom:   19    charge:    3.9633    magn:    0.9128    constr:    0.0000
     atom:   20    charge:    3.9633    magn:    0.9128    constr:    0.0000
     atom:   21    charge:    3.9633    magn:    0.9121    constr:    0.0000
     atom:   22    charge:    3.9633    magn:    0.9135    constr:    0.0000
     atom:   23    charge:    3.9631    magn:    0.9131    constr:    0.0000
     atom:   24    charge:    3.9633    magn:    0.9137    constr:    0.0000
     atom:   25    charge:    3.9578    magn:    0.9139    constr:    0.0000
     atom:   26    charge:    3.9578    magn:    0.9140    constr:    0.0000
     atom:   27    charge:    3.9579    magn:    0.9114    constr:    0.0000
     atom:   28    charge:    3.9706    magn:    0.9044    constr:    0.0000
     atom:   29    charge:    3.9707    magn:    0.9058    constr:    0.0000
     atom:   30    charge:    3.9707    magn:    0.9045    constr:    0.0000
     atom:   31    charge:    3.9864    magn:    0.9025    constr:    0.0000
     atom:   32    charge:    3.9864    magn:    0.9026    constr:    0.0000
     atom:   33    charge:    3.9865    magn:    0.9015    constr:    0.0000
     atom:   34    charge:    4.0105    magn:    0.8960    constr:    0.0000
     atom:   35    charge:    4.0099    magn:    0.8968    constr:    0.0000
     atom:   36    charge:    4.0104    magn:    0.8962    constr:    0.0000
     atom:   37    charge:    2.0651    magn:    0.7190    constr:    0.0000

     total cpu time spent up to now is     1068.6 secs

     total energy              =   -3655.52600833 Ry
     Harris-Foulkes estimate   =   -3655.88625759 Ry
     estimated scf accuracy    <      22.16551207 Ry

     total magnetization       =    36.71 Bohr mag/cell
     absolute magnetization    =    37.44 Bohr mag/cell

     iteration #  8     ecut=    44.10 Ry     beta=0.10
     Davidson diagonalization with overlap
     ethr =  1.03E-03,  avg # of iterations =  1.2

     negative rho (up, down):  8.634E-04 5.898E-04
 
     Adding external electric field

     Computed dipole along edir(3) : 
        Dipole               -0.0484 Ry au,         -0.1229 Debye
        Dipole field         -0.0000 Ry au
 
        Potential amp.        0.0071 Ry
        Total length         73.6798 bohr
 
 
     Adding external electric field

     Computed dipole along edir(3) : 
        Dipole               -0.0484 Ry au,         -0.1229 Debye
        Dipole field         -0.0000 Ry au
 
        Potential amp.        0.0071 Ry
        Total length         73.6798 bohr
 
 
     Magnetic moment per site:
     atom:    1    charge:    4.0036    magn:    0.8962    constr:    0.0000
     atom:    2    charge:    4.0026    magn:    0.8966    constr:    0.0000
     atom:    3    charge:    4.0033    magn:    0.8929    constr:    0.0000
     atom:    4    charge:    3.9809    magn:    0.8953    constr:    0.0000
     atom:    5    charge:    3.9802    magn:    0.8999    constr:    0.0000
     atom:    6    charge:    3.9808    magn:    0.8951    constr:    0.0000
     atom:    7    charge:    3.9719    magn:    0.9060    constr:    0.0000
     atom:    8    charge:    3.9705    magn:    0.9083    constr:    0.0000
     atom:    9    charge:    3.9734    magn:    0.8940    constr:    0.0000
     atom:   10    charge:    3.9649    magn:    0.8985    constr:    0.0000
     atom:   11    charge:    3.9670    magn:    0.8951    constr:    0.0000
     atom:   12    charge:    3.9648    magn:    0.8994    constr:    0.0000
     atom:   13    charge:    3.9629    magn:    0.9023    constr:    0.0000
     atom:   14    charge:    3.9627    magn:    0.9031    constr:    0.0000
     atom:   15    charge:    3.9635    magn:    0.9002    constr:    0.0000
     atom:   16    charge:    3.9639    magn:    0.8984    constr:    0.0000
     atom:   17    charge:    3.9632    magn:    0.9004    constr:    0.0000
     atom:   18    charge:    3.9637    magn:    0.8958    constr:    0.0000
     atom:   19    charge:    3.9627    magn:    0.9005    constr:    0.0000
     atom:   20    charge:    3.9625    magn:    0.9007    constr:    0.0000
     atom:   21    charge:    3.9632    magn:    0.8995    constr:    0.0000
     atom:   22    charge:    3.9635    magn:    0.9006    constr:    0.0000
     atom:   23    charge:    3.9629    magn:    0.9005    constr:    0.0000
     atom:   24    charge:    3.9634    magn:    0.9010    constr:    0.0000
     atom:   25    charge:    3.9633    magn:    0.8976    constr:    0.0000
     atom:   26    charge:    3.9633    magn:    0.8977    constr:    0.0000
     atom:   27    charge:    3.9636    magn:    0.8947    constr:    0.0000
     atom:   28    charge:    3.9707    magn:    0.8912    constr:    0.0000
     atom:   29    charge:    3.9706    magn:    0.8928    constr:    0.0000
     atom:   30    charge:    3.9707    magn:    0.8914    constr:    0.0000
     atom:   31    charge:    3.9796    magn:    0.8949    constr:    0.0000
     atom:   32    charge:    3.9796    magn:    0.8950    constr:    0.0000
     atom:   33    charge:    3.9799    magn:    0.8937    constr:    0.0000
     atom:   34    charge:    4.0005    magn:    0.8904    constr:    0.0000
     atom:   35    charge:    4.0001    magn:    0.8911    constr:    0.0000
     atom:   36    charge:    4.0004    magn:    0.8906    constr:    0.0000
     atom:   37    charge:    2.0653    magn:    0.7044    constr:    0.0000

     total cpu time spent up to now is     1191.8 secs

     total energy              =   -3655.60307524 Ry
     Harris-Foulkes estimate   =   -3655.65955710 Ry
     estimated scf accuracy    <       3.37958980 Ry

     total magnetization       =    36.21 Bohr mag/cell
     absolute magnetization    =    37.02 Bohr mag/cell

     iteration #  9     ecut=    44.10 Ry     beta=0.10
     Davidson diagonalization with overlap
     ethr =  9.23E-04,  avg # of iterations =  1.0

     negative rho (up, down):  8.440E-04 5.524E-04
 
     Adding external electric field

     Computed dipole along edir(3) : 
        Dipole                0.0374 Ry au,          0.0951 Debye
        Dipole field          0.0000 Ry au
 
        Potential amp.       -0.0055 Ry
        Total length         73.6798 bohr
 
 
     Adding external electric field

     Computed dipole along edir(3) : 
        Dipole                0.0374 Ry au,          0.0951 Debye
        Dipole field          0.0000 Ry au
 
        Potential amp.       -0.0055 Ry
        Total length         73.6798 bohr
 
 
     Magnetic moment per site:
     atom:    1    charge:    3.9896    magn:    0.8207    constr:    0.0000
     atom:    2    charge:    3.9914    magn:    0.8187    constr:    0.0000
     atom:    3    charge:    3.9816    magn:    0.8222    constr:    0.0000
     atom:    4    charge:    3.9729    magn:    0.8168    constr:    0.0000
     atom:    5    charge:    3.9759    magn:    0.8194    constr:    0.0000
     atom:    6    charge:    3.9751    magn:    0.8146    constr:    0.0000
     atom:    7    charge:    3.9660    magn:    0.8262    constr:    0.0000
     atom:    8    charge:    3.9621    magn:    0.8285    constr:    0.0000
     atom:    9    charge:    3.9694    magn:    0.8114    constr:    0.0000
     atom:   10    charge:    3.9647    magn:    0.8169    constr:    0.0000
     atom:   11    charge:    3.9728    magn:    0.8073    constr:    0.0000
     atom:   12    charge:    3.9656    magn:    0.8171    constr:    0.0000
     atom:   13    charge:    3.9674    magn:    0.8165    constr:    0.0000
     atom:   14    charge:    3.9683    magn:    0.8165    constr:    0.0000
     atom:   15    charge:    3.9654    magn:    0.8159    constr:    0.0000
     atom:   16    charge:    3.9632    magn:    0.8151    constr:    0.0000
     atom:   17    charge:    3.9659    magn:    0.8151    constr:    0.0000
     atom:   18    charge:    3.9637    magn:    0.8111    constr:    0.0000
     atom:   19    charge:    3.9640    magn:    0.8166    constr:    0.0000
     atom:   20    charge:    3.9647    magn:    0.8161    constr:    0.0000
     atom:   21    charge:    3.9620    magn:    0.8173    constr:    0.0000
     atom:   22    charge:    3.9640    magn:    0.8173    constr:    0.0000
     atom:   23    charge:    3.9659    magn:    0.8149    constr:    0.0000
     atom:   24    charge:    3.9645    magn:    0.8172    constr:    0.0000
     atom:   25    charge:    3.9629    magn:    0.8159    constr:    0.0000
     atom:   26    charge:    3.9632    magn:    0.8155    constr:    0.0000
     atom:   27    charge:    3.9610    magn:    0.8129    constr:    0.0000
     atom:   28    charge:    3.9656    magn:    0.8098    constr:    0.0000
     atom:   29    charge:    3.9672    magn:    0.8101    constr:    0.0000
     atom:   30    charge:    3.9660    magn:    0.8096    constr:    0.0000
     atom:   31    charge:    3.9705    magn:    0.8171    constr:    0.0000
     atom:   32    charge:    3.9709    magn:    0.8169    constr:    0.0000
     atom:   33    charge:    3.9697    magn:    0.8169    constr:    0.0000
     atom:   34    charge:    3.9841    magn:    0.8143    constr:    0.0000
     atom:   35    charge:    3.9848    magn:    0.8139    constr:    0.0000
     atom:   36    charge:    3.9843    magn:    0.8142    constr:    0.0000
     atom:   37    charge:    2.0667    magn:    0.6103    constr:    0.0000

     total cpu time spent up to now is     1314.2 secs

     total energy              =   -3655.89007557 Ry
     Harris-Foulkes estimate   =   -3655.65293929 Ry
     estimated scf accuracy    <       1.02965876 Ry

     total magnetization       =    35.60 Bohr mag/cell
     absolute magnetization    =    36.49 Bohr mag/cell

     iteration # 10     ecut=    44.10 Ry     beta=0.10
     Davidson diagonalization with overlap
     ethr =  2.81E-04,  avg # of iterations =  7.3

     negative rho (up, down):  8.546E-04 6.059E-04
 
     Adding external electric field

     Computed dipole along edir(3) : 
        Dipole                0.0205 Ry au,          0.0522 Debye
        Dipole field          0.0000 Ry au
 
        Potential amp.       -0.0030 Ry
        Total length         73.6798 bohr
 
 
     Adding external electric field

     Computed dipole along edir(3) : 
        Dipole                0.0205 Ry au,          0.0522 Debye
        Dipole field          0.0000 Ry au
 
        Potential amp.       -0.0030 Ry
        Total length         73.6798 bohr
 
 
     Magnetic moment per site:
     atom:    1    charge:    3.9889    magn:    0.7051    constr:    0.0000
     atom:    2    charge:    3.9872    magn:    0.7058    constr:    0.0000
     atom:    3    charge:    3.9855    magn:    0.7020    constr:    0.0000
     atom:    4    charge:    3.9733    magn:    0.7012    constr:    0.0000
     atom:    5    charge:    3.9730    magn:    0.7080    constr:    0.0000
     atom:    6    charge:    3.9726    magn:    0.7012    constr:    0.0000
     atom:    7    charge:    3.9681    magn:    0.7105    constr:    0.0000
     atom:    8    charge:    3.9635    magn:    0.7119    constr:    0.0000
     atom:    9    charge:    3.9698    magn:    0.6938    constr:    0.0000
     atom:   10    charge:    3.9658    magn:    0.7024    constr:    0.0000
     atom:   11    charge:    3.9668    magn:    0.6965    constr:    0.0000
     atom:   12    charge:    3.9646    magn:    0.7046    constr:    0.0000
     atom:   13    charge:    3.9652    magn:    0.7044    constr:    0.0000
     atom:   14    charge:    3.9643    magn:    0.7061    constr:    0.0000
     atom:   15    charge:    3.9667    magn:    0.7006    constr:    0.0000
     atom:   16    charge:    3.9693    magn:    0.6948    constr:    0.0000
     atom:   17    charge:    3.9682    magn:    0.6983    constr:    0.0000
     atom:   18    charge:    3.9686    magn:    0.6904    constr:    0.0000
     atom:   19    charge:    3.9659    magn:    0.7007    constr:    0.0000
     atom:   20    charge:    3.9649    magn:    0.7016    constr:    0.0000
     atom:   21    charge:    3.9682    magn:    0.6979    constr:    0.0000
     atom:   22    charge:    3.9682    magn:    0.6996    constr:    0.0000
     atom:   23    charge:    3.9648    magn:    0.7009    constr:    0.0000
     atom:   24    charge:    3.9673    magn:    0.7007    constr:    0.0000
     atom:   25    charge:    3.9621    magn:    0.7028    constr:    0.0000
     atom:   26    charge:    3.9613    magn:    0.7032    constr:    0.0000
     atom:   27    charge:    3.9644    magn:    0.6946    constr:    0.0000
     atom:   28    charge:    3.9643    magn:    0.6943    constr:    0.0000
     atom:   29    charge:    3.9611    magn:    0.6986    constr:    0.0000
     atom:   30    charge:    3.9635    magn:    0.6951    constr:    0.0000
     atom:   31    charge:    3.9685    magn:    0.7035    constr:    0.0000
     atom:   32    charge:    3.9678    magn:    0.7042    constr:    0.0000
     atom:   33    charge:    3.9703    magn:    0.7014    constr:    0.0000
     atom:   34    charge:    3.9817    magn:    0.6973    constr:    0.0000
     atom:   35    charge:    3.9791    magn:    0.6996    constr:    0.0000
     atom:   36    charge:    3.9811    magn:    0.6980    constr:    0.0000
     atom:   37    charge:    2.0700    magn:    0.4814    constr:    0.0000

     total cpu time spent up to now is     1471.1 secs

     total energy              =   -3656.15614779 Ry
     Harris-Foulkes estimate   =   -3655.93798883 Ry
     estimated scf accuracy    <       1.63946698 Ry

     total magnetization       =    33.40 Bohr mag/cell
     absolute magnetization    =    34.82 Bohr mag/cell

     iteration # 11     ecut=    44.10 Ry     beta=0.10
     Davidson diagonalization with overlap
     ethr =  2.81E-04,  avg # of iterations =  1.0
  python dir          : /home/vossj/suncat/lib/python2.7/site-packages/espresso
  espresso dir        : /home/vossj/suncat/esdld/espresso-dynpy-beef/bin
  pseudo dir          : /home/alatimer/bin/psp/esp_psp_w_gbrvRu/
  ase-espresso py git : ffa2778-git



     Program PWSCF v.5.1rc2 (svn rev. ) starts on 23Mar2018 at  9:38: 7 

     This program is part of the open-source Quantum ESPRESSO suite
     for quantum simulation of materials; please cite
         "P. Giannozzi et al., J. Phys.:Condens. Matter 21 395502 (2009);
          URL http://www.quantum-espresso.org", 
     in publications or presentations arising from this work. More details at
     http://www.quantum-espresso.org/quote

     Parallel version (MPI), running on    16 processors
     R & G space division:  proc/nbgrp/npool/nimage =      16
     Reading input from pw.inp
     Message from routine read_cards :
     DEPRECATED: no units specified in CELL_PARAMETERS card

     Current dimensions of program PWSCF are:
     Max number of different atomic species (ntypx) = 10
     Max number of k-points (npk) =  40000
     Max angular momentum in pseudopotentials (lmaxx) =  3
     Presently no symmetry can be used with electric field


     IMPORTANT: XC functional enforced from input :
     Exchange-correlation      = RPBE ( 1  4 28  4 0)
     Any further DFT definition will be discarded
     Please, verify this is what you really want

               file Ni.UPF: wavefunction(s)  3D renormalized

     Subspace diagonalization in iterative solution of the eigenvalue problem:
     a serial algorithm will be used

 
     Parallelization info
     --------------------
     sticks:   dense  smooth     PW     G-vecs:    dense   smooth      PW
     Min         363     145     39               122687    31011    4299
     Max         364     146     40               122712    31054    4310
     Sum        5823    2325    627              1963319   496527   68879
 
     Generating pointlists ...
     new r_m :   0.4125 (alat units)  0.7795 (a.u.) for type    1
     new r_m :   0.4125 (alat units)  0.7795 (a.u.) for type    2


     bravais-lattice index     =            0
     lattice parameter (alat)  =       1.8897  a.u.
     unit-cell volume          =   12553.3819 (a.u.)^3
     number of atoms/cell      =           37
     number of atomic types    =            2
     number of electrons       =       366.00
     number of Kohn-Sham states=          283
     kinetic-energy cutoff     =      44.0992  Ry
     charge density cutoff     =     440.9919  Ry
     convergence threshold     =      7.3E-07
     mixing beta               =       0.1000
     number of iterations used =           10  plain     mixing
     Exchange-correlation      = RPBE ( 1  4 28  4 0)
     nstep                     =           50


     celldm(1)=   1.889726  celldm(2)=   0.000000  celldm(3)=   0.000000
     celldm(4)=   0.000000  celldm(5)=   0.000000  celldm(6)=   0.000000

     crystal axes: (cart. coord. in units of alat)
               a(1) = (   6.162925   0.000000   0.000000 )  
               a(2) = (   0.000000   7.548011   0.000000 )  
               a(3) = (   0.000000   0.000000  39.989385 )  

     reciprocal axes: (cart. coord. in units 2 pi/alat)
               b(1) = (  0.162261  0.000000  0.000000 )  
               b(2) = (  0.000000  0.132485  0.000000 )  
               b(3) = (  0.000000  0.000000  0.025007 )  


     PseudoPot. # 1 for Ni read from file:
     /home/alatimer/bin/psp/esp_psp_w_gbrvRu/Ni.UPF
     MD5 check sum: 8b2449ee0060d9c33484ccd47bb60870
     Pseudo is Ultrasoft + core correction, Zval = 10.0
     Generated using "atomic" code by A. Dal Corso  v.5.0.2 svn rev. 9415
     Using radial grid of 1195 points,  6 beta functions with: 
                l(1) =   0
                l(2) =   0
                l(3) =   1
                l(4) =   1
                l(5) =   2
                l(6) =   2
     Q(r) pseudized with 0 coefficients 


     PseudoPot. # 2 for  O read from file:
     /home/alatimer/bin/psp/esp_psp_w_gbrvRu/O.UPF
     MD5 check sum: e057bbcf3229fb5d8c36c0c92f9568b4
     Pseudo is Ultrasoft + core correction, Zval =  6.0
     Generated using "atomic" code by A. Dal Corso  v.5.0.2 svn rev. 9415
     Using radial grid of 1095 points,  4 beta functions with: 
                l(1) =   0
                l(2) =   0
                l(3) =   1
                l(4) =   1
     Q(r) pseudized with 0 coefficients 


     atomic species   valence    mass     pseudopotential
        Ni1           10.00    58.69340     Ni( 1.00)
        O1             6.00    15.99940      O( 1.00)

     Starting magnetic structure 
     atomic species   magnetization
        Ni1          0.300
        O1           0.500

     No symmetry found



   Cartesian axes

     site n.     atom                  positions (alat units)
         1           Ni1 tau(   1) = (   0.0000000   1.2580018  23.9893847  )
         2           Ni1 tau(   2) = (   0.0000000   3.7740055  23.9893847  )
         3           Ni1 tau(   3) = (   0.0000000   6.2900092  23.9893847  )
         4           Ni1 tau(   4) = (   4.1086168   0.0000000  23.2630770  )
         5           Ni1 tau(   5) = (   4.1086168   2.5160037  23.2630770  )
         6           Ni1 tau(   6) = (   4.1086168   5.0320073  23.2630770  )
         7           Ni1 tau(   7) = (   2.0543084   1.2580018  22.5367693  )
         8           Ni1 tau(   8) = (   2.0543084   3.7740055  22.5367693  )
         9           Ni1 tau(   9) = (   2.0543084   6.2900092  22.5367693  )
        10           Ni1 tau(  10) = (   0.0000000   0.0000000  21.8104616  )
        11           Ni1 tau(  11) = (   0.0000000   2.5160037  21.8104616  )
        12           Ni1 tau(  12) = (   0.0000000   5.0320073  21.8104616  )
        13           Ni1 tau(  13) = (   4.1086168   1.2580018  21.0841539  )
        14           Ni1 tau(  14) = (   4.1086168   3.7740055  21.0841539  )
        15           Ni1 tau(  15) = (   4.1086168   6.2900092  21.0841539  )
        16           Ni1 tau(  16) = (   2.0543084   0.0000000  20.3578462  )
        17           Ni1 tau(  17) = (   2.0543084   2.5160037  20.3578462  )
        18           Ni1 tau(  18) = (   2.0543084   5.0320073  20.3578462  )
        19           Ni1 tau(  19) = (   0.0000000   1.2580018  19.6315385  )
        20           Ni1 tau(  20) = (   0.0000000   3.7740055  19.6315385  )
        21           Ni1 tau(  21) = (   0.0000000   6.2900092  19.6315385  )
        22           Ni1 tau(  22) = (   4.1086168   0.0000000  18.9052308  )
        23           Ni1 tau(  23) = (   4.1086168   2.5160037  18.9052308  )
        24           Ni1 tau(  24) = (   4.1086168   5.0320073  18.9052308  )
        25           Ni1 tau(  25) = (   2.0543084   1.2580018  18.1789231  )
        26           Ni1 tau(  26) = (   2.0543084   3.7740055  18.1789231  )
        27           Ni1 tau(  27) = (   2.0543084   6.2900092  18.1789231  )
        28           Ni1 tau(  28) = (   0.0000000   0.0000000  17.4526154  )
        29           Ni1 tau(  29) = (   0.0000000   2.5160037  17.4526154  )
        30           Ni1 tau(  30) = (   0.0000000   5.0320073  17.4526154  )
        31           Ni1 tau(  31) = (   4.1086168   1.2580018  16.7263077  )
        32           Ni1 tau(  32) = (   4.1086168   3.7740055  16.7263077  )
        33           Ni1 tau(  33) = (   4.1086168   6.2900092  16.7263077  )
        34           Ni1 tau(  34) = (   2.0543084   0.0000000  16.0000000  )
        35           Ni1 tau(  35) = (   2.0543084   2.5160037  16.0000000  )
        36           Ni1 tau(  36) = (   2.0543084   5.0320073  16.0000000  )
        37           O1  tau(  37) = (   1.9993671   2.6166424  23.7893806  )

     number of k points=    10  Fermi-Dirac smearing, width (Ry)=  0.0073
                       cart. coord. in units 2pi/alat
        k(    1) = (   0.0000000   0.0000000   0.0000000), wk =   0.1111111
        k(    2) = (   0.0000000   0.0441617   0.0000000), wk =   0.2222222
        k(    3) = (   0.0540869   0.0000000   0.0000000), wk =   0.2222222
        k(    4) = (   0.0540869   0.0441617   0.0000000), wk =   0.2222222
        k(    5) = (   0.0540869  -0.0441617   0.0000000), wk =   0.2222222
        k(    6) = (   0.0000000   0.0000000   0.0000000), wk =   0.1111111
        k(    7) = (   0.0000000   0.0441617   0.0000000), wk =   0.2222222
        k(    8) = (   0.0540869   0.0000000   0.0000000), wk =   0.2222222
        k(    9) = (   0.0540869   0.0441617   0.0000000), wk =   0.2222222
        k(   10) = (   0.0540869  -0.0441617   0.0000000), wk =   0.2222222

     Dense  grid:  1963319 G-vectors     FFT dimensions: (  80,  96, 512)

     Smooth grid:   496527 G-vectors     FFT dimensions: (  50,  64, 320)

     Largest allocated arrays     est. size (Mb)     dimensions
        Kohn-Sham Wavefunctions        16.83 Mb     (    3897,  283)
        NL pseudopotentials            39.01 Mb     (    3897,  656)
        Each V/rho on FFT grid          7.50 Mb     (  245760,   2)
        Each G-vector array             0.94 Mb     (  122712)
        G-vector shells                 0.42 Mb     (   55687)
     Largest temporary arrays     est. size (Mb)     dimensions
        Auxiliary wavefunctions        67.31 Mb     (    3897, 1132)
        Each subspace H/S matrix       19.55 Mb     (    1132, 1132)
        Each <psi_i|beta_j> matrix      2.83 Mb     (     656,  283)
        Arrays for rho mixing          37.50 Mb     (  245760,   10)

     Check: negative/imaginary core charge=   -0.000002    0.000000

     Initial potential from superposition of free atoms
     Check: negative starting charge=(component1):   -0.000983
     Check: negative starting charge=(component2):   -0.000519

     starting charge  365.99096, renormalised to  366.00000

     negative rho (up, down):  9.828E-04 5.191E-04
 
     Adding external electric field

     Computed dipole along edir(3) : 
        Dipole               -0.0011 Ry au,         -0.0027 Debye
        Dipole field         -0.0000 Ry au
 
        Potential amp.        0.0002 Ry
        Total length         73.6798 bohr
 
 
     Adding external electric field

     Computed dipole along edir(3) : 
        Dipole               -0.0011 Ry au,         -0.0027 Debye
        Dipole field         -0.0000 Ry au
 
        Potential amp.        0.0002 Ry
        Total length         73.6798 bohr
 
  python dir          : /home/vossj/suncat/lib/python2.7/site-packages/espresso
  espresso dir        : /home/vossj/suncat/esdld/espresso-dynpy-beef/bin
  pseudo dir          : /home/alatimer/bin/psp/esp_psp_w_gbrvRu/
  ase-espresso py git : ffa2778-git



     Program PWSCF v.5.1rc2 (svn rev. ) starts on 23Mar2018 at  9:41:17 

     This program is part of the open-source Quantum ESPRESSO suite
     for quantum simulation of materials; please cite
         "P. Giannozzi et al., J. Phys.:Condens. Matter 21 395502 (2009);
          URL http://www.quantum-espresso.org", 
     in publications or presentations arising from this work. More details at
     http://www.quantum-espresso.org/quote

     Parallel version (MPI), running on    16 processors
     R & G space division:  proc/nbgrp/npool/nimage =      16
     Reading input from pw.inp
     Message from routine read_cards :
     DEPRECATED: no units specified in CELL_PARAMETERS card

     Current dimensions of program PWSCF are:
     Max number of different atomic species (ntypx) = 10
     Max number of k-points (npk) =  40000
     Max angular momentum in pseudopotentials (lmaxx) =  3
     Presently no symmetry can be used with electric field


     IMPORTANT: XC functional enforced from input :
     Exchange-correlation      = RPBE ( 1  4 28  4 0)
     Any further DFT definition will be discarded
     Please, verify this is what you really want

               file Ni.UPF: wavefunction(s)  3D renormalized

     Subspace diagonalization in iterative solution of the eigenvalue problem:
     a serial algorithm will be used

 
     Parallelization info
     --------------------
     sticks:   dense  smooth     PW     G-vecs:    dense   smooth      PW
     Min         363     145     39               122687    31011    4299
     Max         364     146     40               122712    31054    4310
     Sum        5823    2325    627              1963319   496527   68879
 
     Generating pointlists ...
     new r_m :   0.4125 (alat units)  0.7795 (a.u.) for type    1
     new r_m :   0.4125 (alat units)  0.7795 (a.u.) for type    2


     bravais-lattice index     =            0
     lattice parameter (alat)  =       1.8897  a.u.
     unit-cell volume          =   12553.3819 (a.u.)^3
     number of atoms/cell      =           37
     number of atomic types    =            2
     number of electrons       =       366.00
     number of Kohn-Sham states=          283
     kinetic-energy cutoff     =      44.0992  Ry
     charge density cutoff     =     440.9919  Ry
     convergence threshold     =      7.3E-07
     mixing beta               =       0.1000
     number of iterations used =           10  plain     mixing
     Exchange-correlation      = RPBE ( 1  4 28  4 0)
     nstep                     =           50


     celldm(1)=   1.889726  celldm(2)=   0.000000  celldm(3)=   0.000000
     celldm(4)=   0.000000  celldm(5)=   0.000000  celldm(6)=   0.000000

     crystal axes: (cart. coord. in units of alat)
               a(1) = (   6.162925   0.000000   0.000000 )  
               a(2) = (   0.000000   7.548011   0.000000 )  
               a(3) = (   0.000000   0.000000  39.989385 )  

     reciprocal axes: (cart. coord. in units 2 pi/alat)
               b(1) = (  0.162261  0.000000  0.000000 )  
               b(2) = (  0.000000  0.132485  0.000000 )  
               b(3) = (  0.000000  0.000000  0.025007 )  


     PseudoPot. # 1 for Ni read from file:
     /home/alatimer/bin/psp/esp_psp_w_gbrvRu/Ni.UPF
     MD5 check sum: 8b2449ee0060d9c33484ccd47bb60870
     Pseudo is Ultrasoft + core correction, Zval = 10.0
     Generated using "atomic" code by A. Dal Corso  v.5.0.2 svn rev. 9415
     Using radial grid of 1195 points,  6 beta functions with: 
                l(1) =   0
                l(2) =   0
                l(3) =   1
                l(4) =   1
                l(5) =   2
                l(6) =   2
     Q(r) pseudized with 0 coefficients 


     PseudoPot. # 2 for  O read from file:
     /home/alatimer/bin/psp/esp_psp_w_gbrvRu/O.UPF
     MD5 check sum: e057bbcf3229fb5d8c36c0c92f9568b4
     Pseudo is Ultrasoft + core correction, Zval =  6.0
     Generated using "atomic" code by A. Dal Corso  v.5.0.2 svn rev. 9415
     Using radial grid of 1095 points,  4 beta functions with: 
                l(1) =   0
                l(2) =   0
                l(3) =   1
                l(4) =   1
     Q(r) pseudized with 0 coefficients 


     atomic species   valence    mass     pseudopotential
        Ni1           10.00    58.69340     Ni( 1.00)
        O1             6.00    15.99940      O( 1.00)

     Starting magnetic structure 
     atomic species   magnetization
        Ni1          0.300
        O1           0.500

     No symmetry found



   Cartesian axes

     site n.     atom                  positions (alat units)
         1           Ni1 tau(   1) = (   0.0000000   1.2580018  23.9893847  )
         2           Ni1 tau(   2) = (   0.0000000   3.7740055  23.9893847  )
         3           Ni1 tau(   3) = (   0.0000000   6.2900092  23.9893847  )
         4           Ni1 tau(   4) = (   4.1086168   0.0000000  23.2630770  )
         5           Ni1 tau(   5) = (   4.1086168   2.5160037  23.2630770  )
         6           Ni1 tau(   6) = (   4.1086168   5.0320073  23.2630770  )
         7           Ni1 tau(   7) = (   2.0543084   1.2580018  22.5367693  )
         8           Ni1 tau(   8) = (   2.0543084   3.7740055  22.5367693  )
         9           Ni1 tau(   9) = (   2.0543084   6.2900092  22.5367693  )
        10           Ni1 tau(  10) = (   0.0000000   0.0000000  21.8104616  )
        11           Ni1 tau(  11) = (   0.0000000   2.5160037  21.8104616  )
        12           Ni1 tau(  12) = (   0.0000000   5.0320073  21.8104616  )
        13           Ni1 tau(  13) = (   4.1086168   1.2580018  21.0841539  )
        14           Ni1 tau(  14) = (   4.1086168   3.7740055  21.0841539  )
        15           Ni1 tau(  15) = (   4.1086168   6.2900092  21.0841539  )
        16           Ni1 tau(  16) = (   2.0543084   0.0000000  20.3578462  )
        17           Ni1 tau(  17) = (   2.0543084   2.5160037  20.3578462  )
        18           Ni1 tau(  18) = (   2.0543084   5.0320073  20.3578462  )
        19           Ni1 tau(  19) = (   0.0000000   1.2580018  19.6315385  )
        20           Ni1 tau(  20) = (   0.0000000   3.7740055  19.6315385  )
        21           Ni1 tau(  21) = (   0.0000000   6.2900092  19.6315385  )
        22           Ni1 tau(  22) = (   4.1086168   0.0000000  18.9052308  )
        23           Ni1 tau(  23) = (   4.1086168   2.5160037  18.9052308  )
        24           Ni1 tau(  24) = (   4.1086168   5.0320073  18.9052308  )
        25           Ni1 tau(  25) = (   2.0543084   1.2580018  18.1789231  )
        26           Ni1 tau(  26) = (   2.0543084   3.7740055  18.1789231  )
        27           Ni1 tau(  27) = (   2.0543084   6.2900092  18.1789231  )
        28           Ni1 tau(  28) = (   0.0000000   0.0000000  17.4526154  )
        29           Ni1 tau(  29) = (   0.0000000   2.5160037  17.4526154  )
        30           Ni1 tau(  30) = (   0.0000000   5.0320073  17.4526154  )
        31           Ni1 tau(  31) = (   4.1086168   1.2580018  16.7263077  )
        32           Ni1 tau(  32) = (   4.1086168   3.7740055  16.7263077  )
        33           Ni1 tau(  33) = (   4.1086168   6.2900092  16.7263077  )
        34           Ni1 tau(  34) = (   2.0543084   0.0000000  16.0000000  )
        35           Ni1 tau(  35) = (   2.0543084   2.5160037  16.0000000  )
        36           Ni1 tau(  36) = (   2.0543084   5.0320073  16.0000000  )
        37           O1  tau(  37) = (   1.9993671   2.6166424  23.7893806  )

     number of k points=    10  Fermi-Dirac smearing, width (Ry)=  0.0073
                       cart. coord. in units 2pi/alat
        k(    1) = (   0.0000000   0.0000000   0.0000000), wk =   0.1111111
        k(    2) = (   0.0000000   0.0441617   0.0000000), wk =   0.2222222
        k(    3) = (   0.0540869   0.0000000   0.0000000), wk =   0.2222222
        k(    4) = (   0.0540869   0.0441617   0.0000000), wk =   0.2222222
        k(    5) = (   0.0540869  -0.0441617   0.0000000), wk =   0.2222222
        k(    6) = (   0.0000000   0.0000000   0.0000000), wk =   0.1111111
        k(    7) = (   0.0000000   0.0441617   0.0000000), wk =   0.2222222
        k(    8) = (   0.0540869   0.0000000   0.0000000), wk =   0.2222222
        k(    9) = (   0.0540869   0.0441617   0.0000000), wk =   0.2222222
[...]
     5.6991   5.7471   5.7944   5.8215   5.8648   5.9479   5.9979   6.1765
     6.2048   6.2329   6.3158   6.3638   6.4160   6.4526   6.5780   6.5989
     6.6051   6.6329   6.7415   6.8171   6.9192   7.0056   7.0237   7.0523
     7.0896   7.2961   7.4618   7.5398   7.6256   7.6804   7.8178   7.8275
     7.8834   7.9344   7.9819   8.0536   8.1036   8.2390   8.3103   8.3689
     8.4870   8.6074   8.6311

 ------ SPIN DOWN ----------


          k = 0.0000 0.0000 0.0000 ( 62137 PWs)   bands (ev):

   -19.5326  -9.1447  -7.8861  -6.7358  -6.6311  -6.2927  -6.2607  -6.0621
    -5.9423  -5.7029  -5.6331  -5.4108  -5.3984  -4.8849  -4.8297  -4.6725
    -4.5919  -4.5794  -4.5541  -4.5162  -4.4540  -4.3984  -4.3162  -4.1952
    -4.1657  -4.1438  -4.1224  -4.0629  -4.0388  -3.9919  -3.8773  -3.8586
    -3.8409  -3.8107  -3.8006  -3.7872  -3.7658  -3.7226  -3.6958  -3.6088
    -3.5612  -3.5227  -3.5166  -3.4466  -3.4462  -3.3638  -3.3556  -3.2925
    -3.2703  -3.1873  -3.1347  -3.1082  -3.0607  -3.0571  -3.0007  -2.9933
    -2.9666  -2.9581  -2.9513  -2.9320  -2.8931  -2.8801  -2.8685  -2.8123
    -2.7677  -2.7621  -2.7296  -2.7228  -2.6788  -2.6593  -2.6438  -2.6399
    -2.5669  -2.5534  -2.5357  -2.5162  -2.4987  -2.4841  -2.4694  -2.4090
    -2.3449  -2.3444  -2.3419  -2.3202  -2.2850  -2.2817  -2.2749  -2.2483
    -2.2413  -2.2192  -2.2031  -2.1838  -2.1750  -2.1181  -2.0921  -2.0912
    -2.0805  -2.0601  -2.0491  -2.0396  -2.0225  -2.0198  -1.9965  -1.9915
    -1.9794  -1.9684  -1.9303  -1.9237  -1.9112  -1.9035  -1.8705  -1.8658
    -1.8262  -1.7910  -1.7726  -1.7718  -1.7532  -1.6736  -1.6569  -1.6271
    -1.6118  -1.5979  -1.5803  -1.5457  -1.5358  -1.5294  -1.5064  -1.4671
    -1.4547  -1.3955  -1.3630  -1.3624  -1.3491  -1.3463  -1.3379  -1.2851
    -1.2724  -1.2525  -1.1978  -1.1973  -1.1629  -1.1623  -1.1408  -1.1014
    -1.0843  -1.0825  -1.0724  -1.0545  -1.0339  -1.0178  -1.0118  -0.9621
    -0.9620  -0.9524  -0.9306  -0.9249  -0.9226  -0.9165  -0.9008  -0.8840
    -0.8749  -0.8652  -0.8581  -0.8387  -0.8137  -0.8095  -0.7312  -0.7255
    -0.7031  -0.7015  -0.6906  -0.6862  -0.6595  -0.6526  -0.6354  -0.6190
    -0.6078  -0.5967  -0.5852  -0.5783  -0.5751  -0.5598  -0.5577  -0.5119
    -0.4925  -0.4921  -0.4831  -0.4792  -0.4352  -0.4167  -0.3652  -0.3188
    -0.3164  -0.2548  -0.0562   0.0177   0.1780   0.2141   0.4612   0.8153
     0.8372   0.8903   0.9489   1.0204   1.1266   1.2467   1.3346   1.5027
     1.6594   1.6877   1.8988   1.9487   2.3006   2.6131   2.7330   3.0874
     3.0928   3.1692   3.2253   3.2988   3.4007   3.4888   3.6746   3.9211
     4.1284   4.1938   4.2489   4.3551   4.6558   4.9571   5.0335   5.0751
     5.1002   5.3164   5.3939   5.6444   5.6983   5.9605   5.9699   6.0983
     6.1342   6.1548   6.1702   6.1767   6.2529   6.3525   6.5934   6.5952
     6.6092   6.6204   6.6596   6.8047   6.8521   6.8522   7.0281   7.2424
     7.2738   7.2936   7.3020   7.3592   7.3778   7.4377   7.4920   7.5103
     7.5393   7.5637   7.5795   7.6686   7.6959   7.8028   7.9849   8.0324
     8.0887   8.1738   8.2440   8.2811   8.3582   8.5310   8.5595   8.6410
     8.7590   8.7955   8.8501

          k = 0.0000 0.0442 0.0000 ( 62100 PWs)   bands (ev):

   -19.5325  -8.8435  -7.9753  -7.6047  -6.8365  -6.2735  -6.0505  -5.8807
    -5.7813  -5.4711  -5.3406  -5.2422  -5.1379  -4.9172  -4.8461  -4.6925
    -4.6366  -4.6030  -4.5592  -4.5452  -4.4737  -4.3343  -4.2831  -4.2011
    -4.1832  -4.1455  -4.1239  -4.0389  -4.0278  -4.0050  -3.9588  -3.9527
    -3.9239  -3.8860  -3.8611  -3.8496  -3.7634  -3.7395  -3.7049  -3.6492
    -3.5751  -3.5683  -3.5090  -3.4996  -3.4266  -3.3706  -3.3280  -3.3099
    -3.2686  -3.2255  -3.1165  -3.0974  -3.0819  -3.0673  -3.0188  -2.9974
    -2.9909  -2.9694  -2.9646  -2.9034  -2.8962  -2.8736  -2.8648  -2.8429
    -2.7924  -2.7627  -2.7374  -2.7013  -2.6917  -2.6752  -2.6619  -2.6410
    -2.5862  -2.5743  -2.5559  -2.5332  -2.5206  -2.5112  -2.4924  -2.4592
    -2.4556  -2.4092  -2.3846  -2.3459  -2.3388  -2.3146  -2.3064  -2.2747
    -2.2347  -2.2277  -2.2037  -2.1910  -2.1829  -2.1761  -2.1556  -2.1312
    -2.1197  -2.0952  -2.0732  -2.0426  -2.0338  -2.0242  -1.9576  -1.9482
    -1.9380  -1.9160  -1.9130  -1.8714  -1.8623  -1.8559  -1.8252  -1.8237
    -1.7979  -1.7846  -1.7675  -1.7481  -1.7300  -1.7208  -1.6727  -1.6643
    -1.6379  -1.6223  -1.6112  -1.5987  -1.5634  -1.5533  -1.5412  -1.5200
    -1.4776  -1.4544  -1.4382  -1.4243  -1.4098  -1.3587  -1.3547  -1.3449
    -1.3274  -1.3057  -1.2711  -1.2611  -1.2527  -1.2315  -1.2212  -1.1659
    -1.1455  -1.1333  -1.1190  -1.0973  -1.0761  -1.0485  -1.0239  -1.0187
    -1.0039  -0.9932  -0.9852  -0.9199  -0.9182  -0.9068  -0.8871  -0.8637
    -0.8487  -0.7993  -0.7841  -0.7633  -0.7555  -0.7138  -0.6883  -0.6649
    -0.6600  -0.6475  -0.6435  -0.6227  -0.6215  -0.6106  -0.5925  -0.5872
    -0.5809  -0.5643  -0.5443  -0.5279  -0.5015  -0.4859  -0.4774  -0.4553
    -0.4386  -0.4219  -0.4093  -0.3608  -0.3204  -0.2799  -0.2035  -0.1388
    -0.0781   0.1268   0.1507   0.2052   0.2453   0.3572   0.4704   0.5216
     0.8628   0.9234   0.9623   1.0772   1.4044   1.4964   1.7314   1.8619
     1.9026   1.9882   2.0489   2.1310   2.3202   2.3950   2.4201   2.5154
     2.5441   2.9929   3.0845   3.4777   3.4957   3.5554   3.6899   3.7763
     3.8026   3.9375   4.0683   4.2257   4.4494   4.5033   4.6170   4.6771
     4.8624   4.9520   4.9762   5.1049   5.1315   5.3569   5.3922   5.4125
     5.8403   5.9213   5.9980   6.1862   6.2712   6.4378   6.5716   6.6446
     6.7370   6.8604   6.9749   7.0887   7.2404   7.2592   7.3365   7.4698
     7.5466   7.5716   7.6438   7.6609   7.7599   7.7779   7.8281   7.8504
     7.8677   7.9506   8.0170   8.0326   8.1559   8.2121   8.2158   8.2980
     8.3462   8.3844   8.4019   8.4105   8.4443   8.4832   8.5126   8.5259
     8.6168   8.6443   8.6852

          k = 0.0541 0.0000 0.0000 ( 61980 PWs)   bands (ev):

   -19.5314  -8.6995  -7.6157  -7.3233  -6.6648  -6.4536  -6.3355  -6.0597
    -5.9713  -5.8899  -5.5838  -5.4769  -5.3896  -5.1902  -5.1781  -5.0171
    -4.8640  -4.7684  -4.6993  -4.6746  -4.3862  -4.3300  -4.2878  -4.1578
    -4.1261  -4.0907  -4.0528  -4.0194  -3.9534  -3.8009  -3.7320  -3.7166
    -3.7009  -3.6960  -3.6852  -3.6693  -3.6601  -3.6485  -3.6145  -3.5769
    -3.5413  -3.5195  -3.4844  -3.4533  -3.4516  -3.4321  -3.3614  -3.3096
    -3.2585  -3.2512  -3.1987  -3.1491  -3.1197  -3.0922  -3.0426  -3.0129
    -2.9966  -2.9818  -2.9220  -2.8986  -2.8628  -2.8393  -2.8148  -2.8118
    -2.7688  -2.7483  -2.7133  -2.6864  -2.6595  -2.6480  -2.6152  -2.5509
    -2.5400  -2.5111  -2.4763  -2.4487  -2.4377  -2.4053  -2.3872  -2.3733
    -2.3608  -2.3403  -2.3133  -2.2869  -2.2737  -2.2443  -2.2368  -2.2327
    -2.2113  -2.2036  -2.1985  -2.1893  -2.1644  -2.1595  -2.1317  -2.1101
    -2.1056  -2.0708  -2.0700  -2.0545  -2.0533  -2.0325  -2.0253  -2.0166
    -2.0152  -1.9644  -1.9503  -1.9263  -1.8942  -1.8590  -1.8415  -1.8364
    -1.7609  -1.7447  -1.7233  -1.7114  -1.6795  -1.6466  -1.6404  -1.6076
    -1.5318  -1.5081  -1.5043  -1.4815  -1.4522  -1.4445  -1.4393  -1.4066
    -1.3920  -1.3885  -1.3689  -1.3558  -1.3408  -1.3170  -1.3044  -1.2921
    -1.2805  -1.2740  -1.2212  -1.2015  -1.1756  -1.1366  -1.1357  -1.1167
    -1.1022  -1.0819  -1.0693  -1.0600  -1.0516  -1.0224  -1.0103  -0.9989
    -0.9783  -0.9637  -0.9407  -0.9331  -0.9149  -0.8846  -0.8799  -0.8496
    -0.8361  -0.8341  -0.8131  -0.8106  -0.7926  -0.7815  -0.7754  -0.7627
    -0.7458  -0.7438  -0.7237  -0.7200  -0.6890  -0.6757  -0.6730  -0.6287
    -0.6234  -0.6151  -0.5786  -0.5733  -0.5527  -0.5417  -0.5183  -0.5015
    -0.4888  -0.4887  -0.4690  -0.4628  -0.4373  -0.4312  -0.4251  -0.3785
    -0.3782  -0.3567  -0.3471  -0.3036  -0.2483  -0.1689  -0.0310   0.1115
     0.2573   0.3353   0.4338   0.5565   0.8031   1.2856   1.5108   1.8279
     1.9970   2.1603   2.7932   2.9175   3.0055   3.4253   3.4403   3.6364
     3.7292   3.7799   3.8386   3.9302   4.0040   4.2418   4.3030   4.3952
     4.5176   4.5702   4.6433   4.8168   5.0102   5.0428   5.1518   5.2154
     5.2676   5.3662   5.4726   5.4887   5.5579   5.7052   5.8181   5.8764
     5.9567   6.0028   6.0473   6.2257   6.2351   6.3257   6.4122   6.4194
     6.5694   6.5792   6.5894   6.6231   6.6392   6.6860   6.7285   6.8043
     6.8671   6.9465   6.9493   7.0016   7.1287   7.1651   7.1906   7.2421
     7.2650   7.4374   7.5596   7.5978   7.6165   7.7047   7.7171   7.7487
     7.7802   7.7922   7.8627   7.8781   7.8876   7.9199   7.9207   8.0084
     8.0120   8.0312   8.0555

          k = 0.0541 0.0442 0.0000 ( 62079 PWs)   bands (ev):

   -19.5314  -8.4061  -7.5714  -7.3479  -7.0719  -6.6739  -6.4413  -6.3477
    -6.0024  -5.7803  -5.7308  -5.3665  -5.3092  -5.0300  -4.8641  -4.7730
    -4.7158  -4.6457  -4.6037  -4.5389  -4.4851  -4.3768  -4.3063  -4.2130
    -4.1484  -4.1119  -4.0594  -4.0369  -3.9528  -3.9320  -3.9035  -3.8796
    -3.8417  -3.8147  -3.7628  -3.7261  -3.7108  -3.6808  -3.5507  -3.5153
    -3.4843  -3.4601  -3.4506  -3.4244  -3.3980  -3.3373  -3.3035  -3.2702
    -3.2621  -3.2368  -3.2106  -3.1765  -3.1443  -3.1132  -3.0694  -3.0275
    -3.0126  -2.9722  -2.9364  -2.8942  -2.8784  -2.8587  -2.8260  -2.7813
    -2.7530  -2.7180  -2.7110  -2.6902  -2.6632  -2.6257  -2.6083  -2.5844
    -2.5662  -2.5472  -2.5319  -2.4910  -2.4631  -2.4570  -2.4314  -2.4080
    -2.3986  -2.3702  -2.3541  -2.3466  -2.3361  -2.3120  -2.2887  -2.2691
    -2.2494  -2.2201  -2.2084  -2.1836  -2.1682  -2.1498  -2.1399  -2.1109
    -2.1022  -2.0798  -2.0584  -2.0321  -2.0181  -2.0003  -1.9794  -1.9652
    -1.9577  -1.9409  -1.9033  -1.8840  -1.8602  -1.8394  -1.8160  -1.7856
    -1.7494  -1.7428  -1.7367  -1.7223  -1.7003  -1.6873  -1.6653  -1.6366
    -1.6213  -1.6070  -1.5881  -1.5537  -1.5292  -1.5223  -1.5158  -1.4913
    -1.4765  -1.4442  -1.4227  -1.4080  -1.3726  -1.3503  -1.3210  -1.3145
    -1.2998  -1.2734  -1.2468  -1.2270  -1.2144  -1.1941  -1.1892  -1.1524
    -1.1434  -1.1138  -1.1046  -1.0802  -1.0539  -1.0372  -1.0214  -1.0046
    -0.9966  -0.9806  -0.9584  -0.9386  -0.9175  -0.8973  -0.8884  -0.8715
    -0.8568  -0.8399  -0.8230  -0.7826  -0.7781  -0.7562  -0.7427  -0.7253
    -0.6991  -0.6745  -0.6596  -0.6486  -0.6179  -0.6055  -0.5813  -0.5638
    -0.5490  -0.5386  -0.5247  -0.5166  -0.5044  -0.4986  -0.4882  -0.4690
    -0.4568  -0.4380  -0.4109  -0.3906  -0.3863  -0.3717  -0.3544  -0.3165
    -0.2905  -0.2087  -0.1151  -0.0096   0.0766   0.1965   0.3303   0.5082
     0.6238   0.7722   0.8890   0.9361   1.0139   1.2175   1.6455   1.8190
     2.0026   2.0599   2.1566   2.3361   2.3725   2.5237   2.8665   3.1121
     3.2670   3.4114   3.5648   3.8500   4.0713   4.2124   4.2526   4.3226
     4.4421   4.6053   4.6297   4.8168   4.9364   5.0104   5.0871   5.1222
     5.1411   5.2635   5.3434   5.4533   5.4928   5.5183   5.5549   5.6613
     5.7590   5.7996   5.8534   5.9286   6.0610   6.1216   6.1757   6.2228
     6.2494   6.2754   6.3784   6.4181   6.4994   6.5828   6.6103   6.6378
     6.6709   6.7758   6.8491   6.9116   7.0207   7.0474   7.0760   7.1113
     7.1626   7.4387   7.4982   7.6215   7.7005   7.7550   7.8533   7.8705
     7.9354   8.0051   8.0571   8.1198   8.1895   8.3066   8.3922   8.4688
     8.5263   8.6409   8.6781

          k = 0.0541-0.0442 0.0000 ( 62079 PWs)   bands (ev):

   -19.5314  -8.4061  -7.5715  -7.3479  -7.0719  -6.6739  -6.4414  -6.3475
    -6.0021  -5.7807  -5.7309  -5.3662  -5.3092  -5.0297  -4.8642  -4.7730
    -4.7162  -4.6457  -4.6035  -4.5391  -4.4851  -4.3770  -4.3061  -4.2127
    -4.1486  -4.1120  -4.0594  -4.0369  -3.9524  -3.9319  -3.9034  -3.8795
    -3.8416  -3.8147  -3.7630  -3.7262  -3.7107  -3.6809  -3.5512  -3.5152
    -3.4845  -3.4599  -3.4507  -3.4244  -3.3982  -3.3374  -3.3036  -3.2698
    -3.2625  -3.2367  -3.2107  -3.1765  -3.1439  -3.1130  -3.0692  -3.0273
    -3.0128  -2.9719  -2.9365  -2.8940  -2.8782  -2.8591  -2.8259  -2.7815
    -2.7529  -2.7179  -2.7110  -2.6903  -2.6633  -2.6259  -2.6084  -2.5845
    -2.5661  -2.5471  -2.5320  -2.4914  -2.4633  -2.4567  -2.4309  -2.4081
    -2.3991  -2.3704  -2.3538  -2.3465  -2.3359  -2.3121  -2.2885  -2.2691
    -2.2496  -2.2202  -2.2084  -2.1836  -2.1679  -2.1502  -2.1398  -2.1109
    -2.1021  -2.0797  -2.0584  -2.0322  -2.0181  -1.9998  -1.9802  -1.9652
    -1.9574  -1.9409  -1.9034  -1.8837  -1.8602  -1.8394  -1.8163  -1.7855
    -1.7493  -1.7428  -1.7369  -1.7223  -1.6999  -1.6871  -1.6658  -1.6366
    -1.6215  -1.6069  -1.5880  -1.5538  -1.5291  -1.5223  -1.5158  -1.4913
    -1.4763  -1.4442  -1.4229  -1.4081  -1.3726  -1.3504  -1.3208  -1.3142
    -1.3000  -1.2733  -1.2472  -1.2272  -1.2144  -1.1939  -1.1890  -1.1523
    -1.1435  -1.1138  -1.1045  -1.0800  -1.0539  -1.0370  -1.0214  -1.0045
    -0.9966  -0.9807  -0.9587  -0.9387  -0.9176  -0.8973  -0.8885  -0.8715
    -0.8568  -0.8400  -0.8229  -0.7824  -0.7780  -0.7563  -0.7427  -0.7252
    -0.6992  -0.6743  -0.6597  -0.6486  -0.6178  -0.6057  -0.5814  -0.5638
    -0.5489  -0.5387  -0.5246  -0.5164  -0.5043  -0.4986  -0.4883  -0.4689
    -0.4568  -0.4380  -0.4109  -0.3906  -0.3861  -0.3717  -0.3544  -0.3166
    -0.2905  -0.2088  -0.1150  -0.0093   0.0766   0.1963   0.3301   0.5078
     0.6238   0.7724   0.8893   0.9363   1.0132   1.2177   1.6456   1.8190
     2.0029   2.0597   2.1569   2.3363   2.3724   2.5235   2.8659   3.1122
     3.2669   3.4113   3.5651   3.8497   4.0713   4.2122   4.2521   4.3222
     4.4420   4.6058   4.6303   4.8169   4.9364   5.0107   5.0871   5.1221
     5.1409   5.2633   5.3435   5.4534   5.4924   5.5183   5.5549   5.6613
     5.7591   5.7995   5.8533   5.9293   6.0617   6.1212   6.1755   6.2227
     6.2492   6.2754   6.3783   6.4181   6.4991   6.5829   6.6103   6.6378
     6.6709   6.7759   6.8491   6.9120   7.0207   7.0473   7.0763   7.1116
     7.1625   7.4389   7.4983   7.6214   7.7005   7.7549   7.8530   7.8706
     7.9356   8.0052   8.0571   8.1200   8.1892   8.3067   8.3919   8.4691
     8.5259   8.6410   8.6780

     the Fermi energy is    -0.6680 ev

!    total energy              =   -3656.51120646 Ry
     Harris-Foulkes estimate   =   -3656.51120393 Ry
     estimated scf accuracy    <       0.00000055 Ry

     The total energy is the sum of the following terms:

     one-electron contribution =  -78025.18766865 Ry
     hartree contribution      =   39375.98972956 Ry
     xc contribution           =   -1514.40108160 Ry
     ewald contribution        =   36507.24830717 Ry
     electric field correction =       0.00000573 Ry
     smearing contrib. (-TS)   =      -0.16049867 Ry

     total magnetization       =    23.62 Bohr mag/cell
     absolute magnetization    =    27.08 Bohr mag/cell

     convergence has been achieved in  19 iterations

     Forces acting on atoms (Ry/au):


     negative rho (up, down):  7.786E-04 6.342E-04
     atom    1 type  1   force =     0.00060267   -0.00016750   -0.00022719
     atom    2 type  1   force =     0.00028391    0.00004920    0.00031298
     atom    3 type  1   force =    -0.00002547    0.00012652   -0.00026442
     atom    4 type  1   force =    -0.00010723   -0.00028011   -0.00042940
     atom    5 type  1   force =    -0.00058078   -0.00017808    0.00086072
     atom    6 type  1   force =    -0.00006285    0.00023029   -0.00027146
     atom    7 type  1   force =    -0.00004352   -0.00021645   -0.00043151
     atom    8 type  1   force =    -0.00003773    0.00028533   -0.00035171
     atom    9 type  1   force =     0.00027046   -0.00010506   -0.00006435
     atom   10 type  1   force =    -0.00009255   -0.00016889    0.00029209
     atom   11 type  1   force =     0.00068603   -0.00007056    0.00004175
     atom   12 type  1   force =    -0.00003334    0.00003435    0.00032856
     atom   13 type  1   force =    -0.00003630   -0.00009867    0.00011819
     atom   14 type  1   force =     0.00013547    0.00013614    0.00012162
     atom   15 type  1   force =     0.00030127    0.00008666    0.00029646
     atom   16 type  1   force =     0.00030638   -0.00059930    0.00029072
     atom   17 type  1   force =     0.00004816   -0.00012435   -0.00048458
     atom   18 type  1   force =     0.00031876    0.00053481   -0.00004325
     atom   19 type  1   force =    -0.00017523    0.00044914   -0.00164308
     atom   20 type  1   force =    -0.00019461   -0.00016659   -0.00174024
     atom   21 type  1   force =     0.00222726    0.00000372   -0.00431160
     atom   22 type  1   force =     0.00256106    0.00099194   -0.00229458
     atom   23 type  1   force =     0.00306774    0.00013753   -0.00163765
     atom   24 type  1   force =     0.00253657   -0.00104092   -0.00233466
     atom   25 type  1   force =    -0.00320642   -0.00045308   -0.00882938
     atom   26 type  1   force =    -0.00320597    0.00067775   -0.00881432
     atom   27 type  1   force =    -0.00308054   -0.00011128   -0.01164889
     atom   28 type  1   force =    -0.00175892   -0.00018061   -0.01070758
     atom   29 type  1   force =    -0.00208981    0.00010848   -0.01032445
     atom   30 type  1   force =    -0.00175073    0.00008682   -0.01065590
     atom   31 type  1   force =    -0.00521407    0.00009158    0.00305367
     atom   32 type  1   force =    -0.00523013    0.00001026    0.00311304
     atom   33 type  1   force =    -0.00518925   -0.00009498    0.00398786
     atom   34 type  1   force =     0.00597353    0.00037311    0.02169583
     atom   35 type  1   force =     0.00619350    0.00008448    0.02138388
     atom   36 type  1   force =     0.00596983   -0.00044885    0.02175381
     atom   37 type  2   force =     0.00063286    0.00000719   -0.00014098

     Total force =     0.048661     Total SCF correction =     0.003043
 !ASE

     Writing output data file calc.save
 
     init_run     :     52.13s CPU     59.93s WALL (       1 calls)
     electrons    :  52288.77s CPU  59813.94s WALL (      15 calls)
     update_pot   :     66.62s CPU     70.00s WALL (      14 calls)
     forces       :   1284.60s CPU   1333.70s WALL (      15 calls)

     Called by init_run:
     wfcinit      :     29.18s CPU     35.25s WALL (       1 calls)
     potinit      :      1.90s CPU      2.10s WALL (       1 calls)

     Called by electrons:
     c_bands      :  30944.31s CPU  36486.61s WALL (     449 calls)
     sum_band     :  13644.11s CPU  15125.79s WALL (     449 calls)
     v_of_rho     :    278.05s CPU    320.58s WALL (     464 calls)
     newd         :   7578.73s CPU   8034.06s WALL (     464 calls)
     mix_rho      :     65.51s CPU     78.60s WALL (     449 calls)

     Called by c_bands:
     init_us_2    :    185.82s CPU    199.26s WALL (    9140 calls)
     cegterg      :  29885.25s CPU  35373.02s WALL (    4490 calls)

     Called by *egterg:
     h_psi        :  16214.67s CPU  20558.03s WALL (   12605 calls)
     s_psi        :   2741.77s CPU   2859.99s WALL (   12605 calls)
     g_psi        :     69.30s CPU     71.11s WALL (    8105 calls)
     cdiaghg      :   3515.96s CPU   3598.42s WALL (   12455 calls)

     Called by h_psi:
     add_vuspsi   :   2754.62s CPU   2857.30s WALL (   12605 calls)

     General routines
     calbec       :   4152.42s CPU   4273.62s WALL (   17245 calls)
     fft          :    283.29s CPU    330.45s WALL (   14519 calls)
     ffts         :      3.22s CPU      4.57s WALL (    1826 calls)
     fftw         :   7901.88s CPU  12961.90s WALL ( 6758600 calls)
     interpolate  :     35.36s CPU     48.40s WALL (    1826 calls)
     davcio       :      0.06s CPU      1.17s WALL (      10 calls)
 
     Parallel routines
     fft_scatter  :   4595.47s CPU   7469.24s WALL ( 6774945 calls)
 
     PWSCF        :    14h58m CPU       17h 5m WALL

 
   This run was terminated on:   6: 0:45  24Mar2018            

=------------------------------------------------------------------------------=
   JOB DONE.
=------------------------------------------------------------------------------=
