  python dir          : /home/vossj/suncat/lib/python2.7/site-packages/espresso
  espresso dir        : /home/vossj/suncat/esdld/espresso-dynpy-beef/bin
  pseudo dir          : /home/alatimer/bin/psp/esp_psp_w_gbrvRu/
  ase-espresso py git : ffa2778-git



     Program PWSCF v.5.1rc2 (svn rev. ) starts on 20Apr2018 at 13:26: 2 

     This program is part of the open-source Quantum ESPRESSO suite
     for quantum simulation of materials; please cite
         "P. Giannozzi et al., J. Phys.:Condens. Matter 21 395502 (2009);
          URL http://www.quantum-espresso.org", 
     in publications or presentations arising from this work. More details at
     http://www.quantum-espresso.org/quote

     Parallel version (MPI), running on    16 processors
     R & G space division:  proc/nbgrp/npool/nimage =      16
     Reading input from pw.inp
     Message from routine read_cards :
     DEPRECATED: no units specified in CELL_PARAMETERS card

     Current dimensions of program PWSCF are:
     Max number of different atomic species (ntypx) = 10
     Max number of k-points (npk) =  40000
     Max angular momentum in pseudopotentials (lmaxx) =  3
     Presently no symmetry can be used with electric field


     IMPORTANT: XC functional enforced from input :
     Exchange-correlation      = RPBE ( 1  4 28  4 0)
     Any further DFT definition will be discarded
     Please, verify this is what you really want


     Subspace diagonalization in iterative solution of the eigenvalue problem:
     a serial algorithm will be used

 
     Parallelization info
     --------------------
     sticks:   dense  smooth     PW     G-vecs:    dense   smooth      PW
     Min         367     147     39               123943    31337    4337
     Max         368     148     40               123966    31384    4354
     Sum        5877    2361    631              1983193   501747   69475
 
     Generating pointlists ...
     new r_m :   0.4125 (alat units)  0.7795 (a.u.) for type    1
     new r_m :   0.4125 (alat units)  0.7795 (a.u.) for type    2


     bravais-lattice index     =            0
     lattice parameter (alat)  =       1.8897  a.u.
     unit-cell volume          =   12682.1321 (a.u.)^3
     number of atoms/cell      =           37
     number of atomic types    =            2
     number of electrons       =       328.00
     number of Kohn-Sham states=          264
     kinetic-energy cutoff     =      44.0992  Ry
     charge density cutoff     =     440.9919  Ry
     convergence threshold     =      7.3E-07
     mixing beta               =       0.1000
     number of iterations used =           10  plain     mixing
     Exchange-correlation      = RPBE ( 1  4 28  4 0)
     nstep                     =           50


     celldm(1)=   1.889726  celldm(2)=   0.000000  celldm(3)=   0.000000
     celldm(4)=   0.000000  celldm(5)=   0.000000  celldm(6)=   0.000000

     crystal axes: (cart. coord. in units of alat)
               a(1) = (   6.191574   0.000000   0.000000 )  
               a(2) = (   0.000000   7.583099   0.000000 )  
               a(3) = (   0.000000   0.000000  40.026524 )  

     reciprocal axes: (cart. coord. in units 2 pi/alat)
               b(1) = (  0.161510  0.000000  0.000000 )  
               b(2) = (  0.000000  0.131872  0.000000 )  
               b(3) = (  0.000000  0.000000  0.024983 )  


     PseudoPot. # 1 for Co read from file:
     /home/alatimer/bin/psp/esp_psp_w_gbrvRu/Co.UPF
     MD5 check sum: f36dda9fe147c5f42efc2a4f7ec0da3d
     Pseudo is Ultrasoft + core correction, Zval =  9.0
     Generated by new atomic code, or converted to UPF format
     Using radial grid of  937 points,  3 beta functions with: 
                l(1) =   1
                l(2) =   2
                l(3) =   2
     Q(r) pseudized with  8 coefficients,  rinner =    1.000   1.000   1.000
                                                       1.000   1.000

     PseudoPot. # 2 for  C read from file:
     /home/alatimer/bin/psp/esp_psp_w_gbrvRu/C.UPF
     MD5 check sum: ab446d787031eba755f1d5ee46644bb0
     Pseudo is Ultrasoft + core correction, Zval =  4.0
     Generated using "atomic" code by A. Dal Corso  v.5.0.2 svn rev. 9415
     Using radial grid of 1073 points,  4 beta functions with: 
                l(1) =   0
                l(2) =   0
                l(3) =   1
                l(4) =   1
     Q(r) pseudized with 0 coefficients 


     atomic species   valence    mass     pseudopotential
        Co1            9.00    58.93320     Co( 1.00)
        C1             4.00    12.01100      C( 1.00)

     Starting magnetic structure 
     atomic species   magnetization
        Co1          0.444
        C1           1.000

     No symmetry found



   Cartesian axes

     site n.     atom                  positions (alat units)
         1           Co1 tau(   1) = (   4.1277161   1.2638498  24.0265242  )
         2           Co1 tau(   2) = (   4.1277161   3.7915494  24.0265242  )
         3           Co1 tau(   3) = (   4.1277161   6.3192490  24.0265242  )
         4           Co1 tau(   4) = (   2.0638581   0.0000000  23.2968402  )
         5           Co1 tau(   5) = (   2.0638581   2.5276996  23.2968402  )
         6           Co1 tau(   6) = (   2.0638581   5.0553992  23.2968402  )
         7           Co1 tau(   7) = (   0.0000000   1.2638498  22.5671562  )
         8           Co1 tau(   8) = (   0.0000000   3.7915494  22.5671562  )
         9           Co1 tau(   9) = (   0.0000000   6.3192490  22.5671562  )
        10           Co1 tau(  10) = (   4.1277161   0.0000000  21.8374721  )
        11           Co1 tau(  11) = (   4.1277161   2.5276996  21.8374721  )
        12           Co1 tau(  12) = (   4.1277161   5.0553992  21.8374721  )
        13           Co1 tau(  13) = (   2.0638581   1.2638498  21.1077881  )
        14           Co1 tau(  14) = (   2.0638581   3.7915494  21.1077881  )
        15           Co1 tau(  15) = (   2.0638581   6.3192490  21.1077881  )
        16           Co1 tau(  16) = (   0.0000000   0.0000000  20.3781041  )
        17           Co1 tau(  17) = (   0.0000000   2.5276996  20.3781041  )
        18           Co1 tau(  18) = (   0.0000000   5.0553992  20.3781041  )
        19           Co1 tau(  19) = (   4.1277161   1.2638498  19.6484201  )
        20           Co1 tau(  20) = (   4.1277161   3.7915494  19.6484201  )
        21           Co1 tau(  21) = (   4.1277161   6.3192490  19.6484201  )
        22           Co1 tau(  22) = (   2.0638581   0.0000000  18.9187361  )
        23           Co1 tau(  23) = (   2.0638581   2.5276996  18.9187361  )
        24           Co1 tau(  24) = (   2.0638581   5.0553992  18.9187361  )
        25           Co1 tau(  25) = (   0.0000000   1.2638498  18.1890521  )
        26           Co1 tau(  26) = (   0.0000000   3.7915494  18.1890521  )
        27           Co1 tau(  27) = (   0.0000000   6.3192490  18.1890521  )
        28           Co1 tau(  28) = (   4.1277161   0.0000000  17.4593680  )
        29           Co1 tau(  29) = (   4.1277161   2.5276996  17.4593680  )
        30           Co1 tau(  30) = (   4.1277161   5.0553992  17.4593680  )
        31           Co1 tau(  31) = (   2.0638581   1.2638498  16.7296840  )
        32           Co1 tau(  32) = (   2.0638581   3.7915494  16.7296840  )
        33           Co1 tau(  33) = (   2.0638581   6.3192490  16.7296840  )
        34           Co1 tau(  34) = (   0.0000000   0.0000000  16.0000000  )
        35           Co1 tau(  35) = (   0.0000000   2.5276996  16.0000000  )
        36           Co1 tau(  36) = (   0.0000000   5.0553992  16.0000000  )
        37           C1  tau(  37) = (   0.0000000   2.5276996  23.8671562  )

     number of k points=    10  Fermi-Dirac smearing, width (Ry)=  0.0073
                       cart. coord. in units 2pi/alat
        k(    1) = (   0.0000000   0.0000000   0.0000000), wk =   0.1111111
        k(    2) = (   0.0000000   0.0439574   0.0000000), wk =   0.2222222
        k(    3) = (   0.0538366   0.0000000   0.0000000), wk =   0.2222222
        k(    4) = (   0.0538366   0.0439574   0.0000000), wk =   0.2222222
        k(    5) = (   0.0538366  -0.0439574   0.0000000), wk =   0.2222222
        k(    6) = (   0.0000000   0.0000000   0.0000000), wk =   0.1111111
        k(    7) = (   0.0000000   0.0439574   0.0000000), wk =   0.2222222
        k(    8) = (   0.0538366   0.0000000   0.0000000), wk =   0.2222222
        k(    9) = (   0.0538366   0.0439574   0.0000000), wk =   0.2222222
        k(   10) = (   0.0538366  -0.0439574   0.0000000), wk =   0.2222222

     Dense  grid:  1983193 G-vectors     FFT dimensions: (  80,  96, 512)

     Smooth grid:   501747 G-vectors     FFT dimensions: (  50,  64, 320)

     Largest allocated arrays     est. size (Mb)     dimensions
        Kohn-Sham Wavefunctions        15.94 Mb     (    3956,  264)
        NL pseudopotentials            28.73 Mb     (    3956,  476)
        Each V/rho on FFT grid          7.50 Mb     (  245760,   2)
        Each G-vector array             0.95 Mb     (  123962)
        G-vector shells                 0.41 Mb     (   54356)
     Largest temporary arrays     est. size (Mb)     dimensions
        Auxiliary wavefunctions        63.74 Mb     (    3956, 1056)
        Each subspace H/S matrix       17.02 Mb     (    1056, 1056)
        Each <psi_i|beta_j> matrix      1.92 Mb     (     476,  264)
        Arrays for rho mixing          37.50 Mb     (  245760,   10)

     Initial potential from superposition of free atoms
     Check: negative starting charge=(component1):   -0.004321
     Check: negative starting charge=(component2):   -0.001664

     starting charge  327.99028, renormalised to  328.00000

     negative rho (up, down):  4.321E-03 1.664E-03
 
     Adding external electric field

     Computed dipole along edir(3) : 
        Dipole               -0.0006 Ry au,         -0.0014 Debye
        Dipole field         -0.0000 Ry au
 
        Potential amp.        0.0001 Ry
        Total length         73.7482 bohr
 
 
     Adding external electric field

     Computed dipole along edir(3) : 
        Dipole               -0.0006 Ry au,         -0.0014 Debye
        Dipole field         -0.0000 Ry au
 
        Potential amp.        0.0001 Ry
        Total length         73.7482 bohr
 
     Starting wfc are  328 randomized atomic wfcs

     total cpu time spent up to now is       49.2 secs

     Self-consistent Calculation

     iteration #  1     ecut=    44.10 Ry     beta=0.10
     Davidson diagonalization with overlap
     ethr =  1.00E-02,  avg # of iterations =  7.2

     negative rho (up, down):  4.212E-03 1.875E-03
 
     Adding external electric field

     Computed dipole along edir(3) : 
        Dipole               -0.9285 Ry au,         -2.3600 Debye
        Dipole field         -0.0009 Ry au
 
        Potential amp.        0.1357 Ry
        Total length         73.7482 bohr
 
 
     Adding external electric field

     Computed dipole along edir(3) : 
        Dipole               -0.9285 Ry au,         -2.3600 Debye
        Dipole field         -0.0009 Ry au
 
        Potential amp.        0.1357 Ry
        Total length         73.7482 bohr
 
 
     Magnetic moment per site:
     atom:    1    charge:    3.1765    magn:    1.4223    constr:    0.0000
     atom:    2    charge:    3.1765    magn:    1.4224    constr:    0.0000
     atom:    3    charge:    3.1733    magn:    1.4246    constr:    0.0000
     atom:    4    charge:    3.1997    magn:    1.3992    constr:    0.0000
     atom:    5    charge:    3.2085    magn:    1.3899    constr:    0.0000
     atom:    6    charge:    3.1997    magn:    1.3992    constr:    0.0000
     atom:    7    charge:    3.2332    magn:    1.3661    constr:    0.0000
     atom:    8    charge:    3.2332    magn:    1.3661    constr:    0.0000
     atom:    9    charge:    3.2146    magn:    1.3842    constr:    0.0000
     atom:   10    charge:    3.2289    magn:    1.3701    constr:    0.0000
     atom:   11    charge:    3.2303    magn:    1.3695    constr:    0.0000
     atom:   12    charge:    3.2289    magn:    1.3701    constr:    0.0000
     atom:   13    charge:    3.2300    magn:    1.3707    constr:    0.0000
     atom:   14    charge:    3.2300    magn:    1.3707    constr:    0.0000
     atom:   15    charge:    3.2285    magn:    1.3714    constr:    0.0000
     atom:   16    charge:    3.2290    magn:    1.3699    constr:    0.0000
     atom:   17    charge:    3.2276    magn:    1.3720    constr:    0.0000
     atom:   18    charge:    3.2290    magn:    1.3699    constr:    0.0000
     atom:   19    charge:    3.2287    magn:    1.3703    constr:    0.0000
     atom:   20    charge:    3.2287    magn:    1.3704    constr:    0.0000
     atom:   21    charge:    3.2285    magn:    1.3704    constr:    0.0000
     atom:   22    charge:    3.2291    magn:    1.3710    constr:    0.0000
     atom:   23    charge:    3.2288    magn:    1.3709    constr:    0.0000
     atom:   24    charge:    3.2291    magn:    1.3710    constr:    0.0000
     atom:   25    charge:    3.2291    magn:    1.3700    constr:    0.0000
     atom:   26    charge:    3.2291    magn:    1.3700    constr:    0.0000
     atom:   27    charge:    3.2280    magn:    1.3701    constr:    0.0000
     atom:   28    charge:    3.2138    magn:    1.3838    constr:    0.0000
     atom:   29    charge:    3.2139    magn:    1.3839    constr:    0.0000
     atom:   30    charge:    3.2137    magn:    1.3838    constr:    0.0000
     atom:   31    charge:    3.2012    magn:    1.3975    constr:    0.0000
     atom:   32    charge:    3.2012    magn:    1.3975    constr:    0.0000
     atom:   33    charge:    3.2009    magn:    1.3976    constr:    0.0000
     atom:   34    charge:    3.1725    magn:    1.4256    constr:    0.0000
     atom:   35    charge:    3.1729    magn:    1.4254    constr:    0.0000
     atom:   36    charge:    3.1725    magn:    1.4256    constr:    0.0000
     atom:   37    charge:    0.5896    magn:    0.5369    constr:    0.0000

     total cpu time spent up to now is      198.7 secs

     total energy              =   -2891.52237447 Ry
     Harris-Foulkes estimate   =   -2895.05087926 Ry
     estimated scf accuracy    <      23.39634481 Ry

     total magnetization       =    76.48 Bohr mag/cell
     absolute magnetization    =    76.51 Bohr mag/cell

     iteration #  2     ecut=    44.10 Ry     beta=0.10
     Davidson diagonalization with overlap
     ethr =  7.13E-03,  avg # of iterations =  3.1

     negative rho (up, down):  5.405E-03 3.063E-03
 
     Adding external electric field

     Computed dipole along edir(3) : 
        Dipole                1.0403 Ry au,          2.6441 Debye
        Dipole field          0.0010 Ry au
 
        Potential amp.       -0.1520 Ry
        Total length         73.7482 bohr
 
 
     Adding external electric field

     Computed dipole along edir(3) : 
        Dipole                1.0403 Ry au,          2.6441 Debye
        Dipole field          0.0010 Ry au
 
        Potential amp.       -0.1520 Ry
        Total length         73.7482 bohr
 
 
     Magnetic moment per site:
     atom:    1    charge:    3.2009    magn:    1.3967    constr:    0.0000
     atom:    2    charge:    3.2009    magn:    1.3967    constr:    0.0000
     atom:    3    charge:    3.1987    magn:    1.3983    constr:    0.0000
     atom:    4    charge:    3.2160    magn:    1.3785    constr:    0.0000
     atom:    5    charge:    3.2206    magn:    1.3716    constr:    0.0000
     atom:    6    charge:    3.2160    magn:    1.3785    constr:    0.0000
     atom:    7    charge:    3.2229    magn:    1.3620    constr:    0.0000
     atom:    8    charge:    3.2229    magn:    1.3620    constr:    0.0000
     atom:    9    charge:    3.2141    magn:    1.3764    constr:    0.0000
     atom:   10    charge:    3.2134    magn:    1.3717    constr:    0.0000
     atom:   11    charge:    3.2132    magn:    1.3717    constr:    0.0000
     atom:   12    charge:    3.2134    magn:    1.3717    constr:    0.0000
     atom:   13    charge:    3.2078    magn:    1.3737    constr:    0.0000
     atom:   14    charge:    3.2078    magn:    1.3737    constr:    0.0000
     atom:   15    charge:    3.2076    magn:    1.3746    constr:    0.0000
     atom:   16    charge:    3.2048    magn:    1.3721    constr:    0.0000
     atom:   17    charge:    3.2035    magn:    1.3739    constr:    0.0000
     atom:   18    charge:    3.2048    magn:    1.3721    constr:    0.0000
     atom:   19    charge:    3.2072    magn:    1.3735    constr:    0.0000
     atom:   20    charge:    3.2072    magn:    1.3735    constr:    0.0000
     atom:   21    charge:    3.2074    magn:    1.3736    constr:    0.0000
     atom:   22    charge:    3.2140    magn:    1.3722    constr:    0.0000
     atom:   23    charge:    3.2136    magn:    1.3723    constr:    0.0000
     atom:   24    charge:    3.2140    magn:    1.3722    constr:    0.0000
     atom:   25    charge:    3.2261    magn:    1.3621    constr:    0.0000
     atom:   26    charge:    3.2261    magn:    1.3621    constr:    0.0000
     atom:   27    charge:    3.2258    magn:    1.3617    constr:    0.0000
     atom:   28    charge:    3.2274    magn:    1.3637    constr:    0.0000
     atom:   29    charge:    3.2275    magn:    1.3639    constr:    0.0000
     atom:   30    charge:    3.2274    magn:    1.3637    constr:    0.0000
     atom:   31    charge:    3.2228    magn:    1.3723    constr:    0.0000
     atom:   32    charge:    3.2228    magn:    1.3723    constr:    0.0000
     atom:   33    charge:    3.2226    magn:    1.3724    constr:    0.0000
     atom:   34    charge:    3.1995    magn:    1.3985    constr:    0.0000
     atom:   35    charge:    3.1998    magn:    1.3983    constr:    0.0000
     atom:   36    charge:    3.1995    magn:    1.3984    constr:    0.0000
     atom:   37    charge:    0.5925    magn:    0.5314    constr:    0.0000

     total cpu time spent up to now is      303.4 secs

     total energy              =   -2890.61340188 Ry
     Harris-Foulkes estimate   =   -2901.43175003 Ry
     estimated scf accuracy    <     277.70674396 Ry

     total magnetization       =    73.45 Bohr mag/cell
     absolute magnetization    =    73.49 Bohr mag/cell

     iteration #  3     ecut=    44.10 Ry     beta=0.10
     Davidson diagonalization with overlap
     ethr =  7.13E-03,  avg # of iterations =  2.5

     negative rho (up, down):  8.006E-03 4.840E-03
 
     Adding external electric field

     Computed dipole along edir(3) : 
        Dipole               -0.3785 Ry au,         -0.9620 Debye
        Dipole field         -0.0004 Ry au
 
        Potential amp.        0.0553 Ry
        Total length         73.7482 bohr
 
 
     Adding external electric field

     Computed dipole along edir(3) : 
        Dipole               -0.3785 Ry au,         -0.9620 Debye
        Dipole field         -0.0004 Ry au
 
        Potential amp.        0.0553 Ry
        Total length         73.7482 bohr
 
 
     Magnetic moment per site:
     atom:    1    charge:    3.2107    magn:    1.3857    constr:    0.0000
     atom:    2    charge:    3.2107    magn:    1.3858    constr:    0.0000
     atom:    3    charge:    3.2089    magn:    1.3871    constr:    0.0000
     atom:    4    charge:    3.2228    magn:    1.3694    constr:    0.0000
     atom:    5    charge:    3.2259    magn:    1.3633    constr:    0.0000
     atom:    6    charge:    3.2227    magn:    1.3694    constr:    0.0000
     atom:    7    charge:    3.2244    magn:    1.3562    constr:    0.0000
     atom:    8    charge:    3.2244    magn:    1.3562    constr:    0.0000
     atom:    9    charge:    3.2181    magn:    1.3694    constr:    0.0000
     atom:   10    charge:    3.2149    magn:    1.3666    constr:    0.0000
     atom:   11    charge:    3.2144    magn:    1.3667    constr:    0.0000
     atom:   12    charge:    3.2149    magn:    1.3666    constr:    0.0000
     atom:   13    charge:    3.2078    magn:    1.3696    constr:    0.0000
     atom:   14    charge:    3.2078    magn:    1.3696    constr:    0.0000
     atom:   15    charge:    3.2081    magn:    1.3702    constr:    0.0000
     atom:   16    charge:    3.2037    magn:    1.3688    constr:    0.0000
     atom:   17    charge:    3.2024    magn:    1.3708    constr:    0.0000
     atom:   18    charge:    3.2037    magn:    1.3688    constr:    0.0000
     atom:   19    charge:    3.2044    magn:    1.3720    constr:    0.0000
     atom:   20    charge:    3.2044    magn:    1.3720    constr:    0.0000
     atom:   21    charge:    3.2046    magn:    1.3721    constr:    0.0000
     atom:   22    charge:    3.2098    magn:    1.3719    constr:    0.0000
     atom:   23    charge:    3.2094    magn:    1.3719    constr:    0.0000
     atom:   24    charge:    3.2098    magn:    1.3719    constr:    0.0000
     atom:   25    charge:    3.2204    magn:    1.3624    constr:    0.0000
     atom:   26    charge:    3.2204    magn:    1.3624    constr:    0.0000
     atom:   27    charge:    3.2202    magn:    1.3618    constr:    0.0000
     atom:   28    charge:    3.2223    magn:    1.3640    constr:    0.0000
     atom:   29    charge:    3.2223    magn:    1.3642    constr:    0.0000
     atom:   30    charge:    3.2223    magn:    1.3640    constr:    0.0000
     atom:   31    charge:    3.2192    magn:    1.3722    constr:    0.0000
     atom:   32    charge:    3.2192    magn:    1.3722    constr:    0.0000
     atom:   33    charge:    3.2191    magn:    1.3722    constr:    0.0000
     atom:   34    charge:    3.2028    magn:    1.3936    constr:    0.0000
     atom:   35    charge:    3.2030    magn:    1.3935    constr:    0.0000
     atom:   36    charge:    3.2028    magn:    1.3936    constr:    0.0000
     atom:   37    charge:    0.5938    magn:    0.5291    constr:    0.0000

     total cpu time spent up to now is      403.3 secs

     total energy              =   -2893.15258995 Ry
     Harris-Foulkes estimate   =   -2896.82846619 Ry
     estimated scf accuracy    <     272.56259727 Ry

     total magnetization       =    75.13 Bohr mag/cell
     absolute magnetization    =    75.19 Bohr mag/cell

     iteration #  4     ecut=    44.10 Ry     beta=0.10
     Davidson diagonalization with overlap
     ethr =  7.13E-03,  avg # of iterations =  1.0

     negative rho (up, down):  1.022E-02 6.215E-03
 
     Adding external electric field

     Computed dipole along edir(3) : 
        Dipole               -0.0426 Ry au,         -0.1084 Debye
        Dipole field         -0.0000 Ry au
 
        Potential amp.        0.0062 Ry
        Total length         73.7482 bohr
 
 
     Adding external electric field

     Computed dipole along edir(3) : 
        Dipole               -0.0426 Ry au,         -0.1084 Debye
        Dipole field         -0.0000 Ry au
 
        Potential amp.        0.0062 Ry
        Total length         73.7482 bohr
 
 
     Magnetic moment per site:
     atom:    1    charge:    3.2165    magn:    1.3734    constr:    0.0000
     atom:    2    charge:    3.2165    magn:    1.3734    constr:    0.0000
     atom:    3    charge:    3.2178    magn:    1.3722    constr:    0.0000
     atom:    4    charge:    3.2166    magn:    1.3657    constr:    0.0000
     atom:    5    charge:    3.2166    magn:    1.3602    constr:    0.0000
     atom:    6    charge:    3.2166    magn:    1.3657    constr:    0.0000
     atom:    7    charge:    3.2185    magn:    1.3473    constr:    0.0000
     atom:    8    charge:    3.2185    magn:    1.3473    constr:    0.0000
     atom:    9    charge:    3.2143    magn:    1.3630    constr:    0.0000
     atom:   10    charge:    3.2130    magn:    1.3580    constr:    0.0000
     atom:   11    charge:    3.2122    magn:    1.3587    constr:    0.0000
     atom:   12    charge:    3.2130    magn:    1.3580    constr:    0.0000
     atom:   13    charge:    3.2101    magn:    1.3587    constr:    0.0000
     atom:   14    charge:    3.2101    magn:    1.3587    constr:    0.0000
     atom:   15    charge:    3.2104    magn:    1.3590    constr:    0.0000
     atom:   16    charge:    3.2079    magn:    1.3565    constr:    0.0000
     atom:   17    charge:    3.2072    magn:    1.3584    constr:    0.0000
     atom:   18    charge:    3.2079    magn:    1.3565    constr:    0.0000
     atom:   19    charge:    3.2072    magn:    1.3607    constr:    0.0000
     atom:   20    charge:    3.2072    magn:    1.3607    constr:    0.0000
     atom:   21    charge:    3.2073    magn:    1.3608    constr:    0.0000
     atom:   22    charge:    3.2087    magn:    1.3631    constr:    0.0000
     atom:   23    charge:    3.2085    magn:    1.3629    constr:    0.0000
     atom:   24    charge:    3.2087    magn:    1.3631    constr:    0.0000
     atom:   25    charge:    3.2125    magn:    1.3581    constr:    0.0000
     atom:   26    charge:    3.2125    magn:    1.3581    constr:    0.0000
     atom:   27    charge:    3.2122    magn:    1.3572    constr:    0.0000
     atom:   28    charge:    3.2138    magn:    1.3609    constr:    0.0000
     atom:   29    charge:    3.2138    magn:    1.3612    constr:    0.0000
     atom:   30    charge:    3.2138    magn:    1.3609    constr:    0.0000
     atom:   31    charge:    3.2174    magn:    1.3646    constr:    0.0000
     atom:   32    charge:    3.2174    magn:    1.3646    constr:    0.0000
     atom:   33    charge:    3.2174    magn:    1.3645    constr:    0.0000
     atom:   34    charge:    3.2194    magn:    1.3719    constr:    0.0000
     atom:   35    charge:    3.2194    magn:    1.3719    constr:    0.0000
     atom:   36    charge:    3.2194    magn:    1.3719    constr:    0.0000
     atom:   37    charge:    0.5954    magn:    0.5223    constr:    0.0000

     total cpu time spent up to now is      496.1 secs

     total energy              =   -2894.89477249 Ry
     Harris-Foulkes estimate   =   -2895.33234218 Ry
     estimated scf accuracy    <      26.27303468 Ry

     total magnetization       =    75.14 Bohr mag/cell
     absolute magnetization    =    75.19 Bohr mag/cell

     iteration #  5     ecut=    44.10 Ry     beta=0.10
     Davidson diagonalization with overlap
     ethr =  7.13E-03,  avg # of iterations =  1.0

     negative rho (up, down):  8.426E-03 5.542E-03
 
     Adding external electric field

     Computed dipole along edir(3) : 
        Dipole               -0.1863 Ry au,         -0.4735 Debye
        Dipole field         -0.0002 Ry au
 
        Potential amp.        0.0272 Ry
        Total length         73.7482 bohr
 
 
     Adding external electric field

     Computed dipole along edir(3) : 
        Dipole               -0.1863 Ry au,         -0.4735 Debye
        Dipole field         -0.0002 Ry au
 
        Potential amp.        0.0272 Ry
        Total length         73.7482 bohr
 
 
     Magnetic moment per site:
     atom:    1    charge:    3.2367    magn:    1.3166    constr:    0.0000
     atom:    2    charge:    3.2367    magn:    1.3167    constr:    0.0000
     atom:    3    charge:    3.2399    magn:    1.3139    constr:    0.0000
     atom:    4    charge:    3.2170    magn:    1.3220    constr:    0.0000
     atom:    5    charge:    3.2096    magn:    1.3172    constr:    0.0000
     atom:    6    charge:    3.2170    magn:    1.3220    constr:    0.0000
     atom:    7    charge:    3.2049    magn:    1.2946    constr:    0.0000
     atom:    8    charge:    3.2049    magn:    1.2946    constr:    0.0000
     atom:    9    charge:    3.2077    magn:    1.3213    constr:    0.0000
     atom:   10    charge:    3.1978    magn:    1.3204    constr:    0.0000
     atom:   11    charge:    3.1975    magn:    1.3220    constr:    0.0000
     atom:   12    charge:    3.1978    magn:    1.3204    constr:    0.0000
     atom:   13    charge:    3.2026    magn:    1.3178    constr:    0.0000
     atom:   14    charge:    3.2026    magn:    1.3178    constr:    0.0000
     atom:   15    charge:    3.2010    magn:    1.3183    constr:    0.0000
     atom:   16    charge:    3.2029    magn:    1.3136    constr:    0.0000
     atom:   17    charge:    3.2037    magn:    1.3154    constr:    0.0000
     atom:   18    charge:    3.2029    magn:    1.3137    constr:    0.0000
     atom:   19    charge:    3.2068    magn:    1.3137    constr:    0.0000
     atom:   20    charge:    3.2068    magn:    1.3137    constr:    0.0000
     atom:   21    charge:    3.2064    magn:    1.3141    constr:    0.0000
     atom:   22    charge:    3.2069    magn:    1.3160    constr:    0.0000
     atom:   23    charge:    3.2071    magn:    1.3153    constr:    0.0000
     atom:   24    charge:    3.2069    magn:    1.3160    constr:    0.0000
     atom:   25    charge:    3.2003    magn:    1.3184    constr:    0.0000
     atom:   26    charge:    3.2003    magn:    1.3184    constr:    0.0000
     atom:   27    charge:    3.2000    magn:    1.3159    constr:    0.0000
     atom:   28    charge:    3.2132    magn:    1.3142    constr:    0.0000
     atom:   29    charge:    3.2134    magn:    1.3146    constr:    0.0000
     atom:   30    charge:    3.2133    magn:    1.3142    constr:    0.0000
     atom:   31    charge:    3.2183    magn:    1.3191    constr:    0.0000
     atom:   32    charge:    3.2183    magn:    1.3191    constr:    0.0000
     atom:   33    charge:    3.2185    magn:    1.3189    constr:    0.0000
     atom:   34    charge:    3.2330    magn:    1.3201    constr:    0.0000
     atom:   35    charge:    3.2324    magn:    1.3206    constr:    0.0000
     atom:   36    charge:    3.2330    magn:    1.3201    constr:    0.0000
     atom:   37    charge:    0.6050    magn:    0.4885    constr:    0.0000

     total cpu time spent up to now is      589.1 secs

     total energy              =   -2895.28131701 Ry
     Harris-Foulkes estimate   =   -2895.09453981 Ry
     estimated scf accuracy    <       2.76701458 Ry

     total magnetization       =    75.36 Bohr mag/cell
     absolute magnetization    =    75.41 Bohr mag/cell

     iteration #  6     ecut=    44.10 Ry     beta=0.10
     Davidson diagonalization with overlap
     ethr =  8.44E-04,  avg # of iterations =  7.4

     negative rho (up, down):  5.474E-03 4.772E-03
 
     Adding external electric field

     Computed dipole along edir(3) : 
        Dipole                0.0039 Ry au,          0.0100 Debye
        Dipole field          0.0000 Ry au
 
        Potential amp.       -0.0006 Ry
        Total length         73.7482 bohr
 
 
     Adding external electric field

     Computed dipole along edir(3) : 
        Dipole                0.0039 Ry au,          0.0100 Debye
        Dipole field          0.0000 Ry au
 
        Potential amp.       -0.0006 Ry
        Total length         73.7482 bohr
 
 
     Magnetic moment per site:
     atom:    1    charge:    3.2383    magn:    1.2600    constr:    0.0000
     atom:    2    charge:    3.2383    magn:    1.2600    constr:    0.0000
     atom:    3    charge:    3.2433    magn:    1.2562    constr:    0.0000
     atom:    4    charge:    3.2202    magn:    1.2603    constr:    0.0000
     atom:    5    charge:    3.2116    magn:    1.2497    constr:    0.0000
     atom:    6    charge:    3.2202    magn:    1.2603    constr:    0.0000
     atom:    7    charge:    3.1982    magn:    1.2150    constr:    0.0000
     atom:    8    charge:    3.1982    magn:    1.2150    constr:    0.0000
     atom:    9    charge:    3.2116    magn:    1.2544    constr:    0.0000
     atom:   10    charge:    3.1931    magn:    1.2581    constr:    0.0000
     atom:   11    charge:    3.1938    magn:    1.2602    constr:    0.0000
     atom:   12    charge:    3.1931    magn:    1.2581    constr:    0.0000
     atom:   13    charge:    3.1971    magn:    1.2583    constr:    0.0000
     atom:   14    charge:    3.1971    magn:    1.2583    constr:    0.0000
     atom:   15    charge:    3.1962    magn:    1.2571    constr:    0.0000
     atom:   16    charge:    3.1980    magn:    1.2529    constr:    0.0000
     atom:   17    charge:    3.1982    magn:    1.2567    constr:    0.0000
     atom:   18    charge:    3.1980    magn:    1.2529    constr:    0.0000
     atom:   19    charge:    3.1973    magn:    1.2564    constr:    0.0000
     atom:   20    charge:    3.1973    magn:    1.2564    constr:    0.0000
     atom:   21    charge:    3.1972    magn:    1.2565    constr:    0.0000
     atom:   22    charge:    3.1952    magn:    1.2595    constr:    0.0000
     atom:   23    charge:    3.1951    magn:    1.2587    constr:    0.0000
     atom:   24    charge:    3.1952    magn:    1.2595    constr:    0.0000
     atom:   25    charge:    3.1903    magn:    1.2603    constr:    0.0000
     atom:   26    charge:    3.1903    magn:    1.2603    constr:    0.0000
     atom:   27    charge:    3.1900    magn:    1.2558    constr:    0.0000
     atom:   28    charge:    3.2068    magn:    1.2550    constr:    0.0000
     atom:   29    charge:    3.2068    magn:    1.2558    constr:    0.0000
     atom:   30    charge:    3.2068    magn:    1.2550    constr:    0.0000
     atom:   31    charge:    3.2204    magn:    1.2564    constr:    0.0000
     atom:   32    charge:    3.2204    magn:    1.2564    constr:    0.0000
     atom:   33    charge:    3.2207    magn:    1.2561    constr:    0.0000
     atom:   34    charge:    3.2513    magn:    1.2488    constr:    0.0000
     atom:   35    charge:    3.2508    magn:    1.2493    constr:    0.0000
     atom:   36    charge:    3.2513    magn:    1.2488    constr:    0.0000
     atom:   37    charge:    0.6169    magn:    0.4420    constr:    0.0000

     total cpu time spent up to now is      713.8 secs

     total energy              =   -2895.78041701 Ry
     Harris-Foulkes estimate   =   -2895.46731962 Ry
     estimated scf accuracy    <       4.21783701 Ry

     total magnetization       =    74.79 Bohr mag/cell
     absolute magnetization    =    74.90 Bohr mag/cell

     iteration #  7     ecut=    44.10 Ry     beta=0.10
     Davidson diagonalization with overlap
     ethr =  8.44E-04,  avg # of iterations =  2.8

     negative rho (up, down):  5.905E-03 5.256E-03
 
     Adding external electric field

     Computed dipole along edir(3) : 
        Dipole               -0.0920 Ry au,         -0.2337 Debye
        Dipole field         -0.0001 Ry au
 
        Potential amp.        0.0134 Ry
        Total length         73.7482 bohr
 
 
     Adding external electric field

     Computed dipole along edir(3) : 
        Dipole               -0.0920 Ry au,         -0.2337 Debye
        Dipole field         -0.0001 Ry au
 
        Potential amp.        0.0134 Ry
        Total length         73.7482 bohr
 
 
     Magnetic moment per site:
     atom:    1    charge:    3.2350    magn:    1.2454    constr:    0.0000
     atom:    2    charge:    3.2350    magn:    1.2454    constr:    0.0000
     atom:    3    charge:    3.2414    magn:    1.2407    constr:    0.0000
     atom:    4    charge:    3.2148    magn:    1.2473    constr:    0.0000
     atom:    5    charge:    3.2091    magn:    1.2318    constr:    0.0000
     atom:    6    charge:    3.2148    magn:    1.2473    constr:    0.0000
     atom:    7    charge:    3.1978    magn:    1.1905    constr:    0.0000
     atom:    8    charge:    3.1978    magn:    1.1905    constr:    0.0000
     atom:    9    charge:    3.2082    magn:    1.2384    constr:    0.0000
     atom:   10    charge:    3.1973    magn:    1.2375    constr:    0.0000
     atom:   11    charge:    3.1975    magn:    1.2397    constr:    0.0000
     atom:   12    charge:    3.1973    magn:    1.2375    constr:    0.0000
     atom:   13    charge:    3.1970    magn:    1.2400    constr:    0.0000
     atom:   14    charge:    3.1970    magn:    1.2400    constr:    0.0000
     atom:   15    charge:    3.1972    magn:    1.2382    constr:    0.0000
     atom:   16    charge:    3.1971    magn:    1.2343    constr:    0.0000
     atom:   17    charge:    3.1972    magn:    1.2386    constr:    0.0000
     atom:   18    charge:    3.1971    magn:    1.2343    constr:    0.0000
     atom:   19    charge:    3.1962    magn:    1.2387    constr:    0.0000
     atom:   20    charge:    3.1962    magn:    1.2387    constr:    0.0000
     atom:   21    charge:    3.1960    magn:    1.2390    constr:    0.0000
     atom:   22    charge:    3.1952    magn:    1.2417    constr:    0.0000
     atom:   23    charge:    3.1953    magn:    1.2408    constr:    0.0000
     atom:   24    charge:    3.1952    magn:    1.2417    constr:    0.0000
     atom:   25    charge:    3.1969    magn:    1.2376    constr:    0.0000
     atom:   26    charge:    3.1969    magn:    1.2376    constr:    0.0000
     atom:   27    charge:    3.1965    magn:    1.2330    constr:    0.0000
     atom:   28    charge:    3.2073    magn:    1.2362    constr:    0.0000
     atom:   29    charge:    3.2074    magn:    1.2368    constr:    0.0000
     atom:   30    charge:    3.2073    magn:    1.2361    constr:    0.0000
     atom:   31    charge:    3.2185    magn:    1.2398    constr:    0.0000
     atom:   32    charge:    3.2185    magn:    1.2398    constr:    0.0000
     atom:   33    charge:    3.2188    magn:    1.2396    constr:    0.0000
     atom:   34    charge:    3.2407    magn:    1.2386    constr:    0.0000
     atom:   35    charge:    3.2404    magn:    1.2389    constr:    0.0000
     atom:   36    charge:    3.2407    magn:    1.2386    constr:    0.0000
     atom:   37    charge:    0.6180    magn:    0.4265    constr:    0.0000

     total cpu time spent up to now is      814.0 secs

     total energy              =   -2895.92561133 Ry
     Harris-Foulkes estimate   =   -2895.95205093 Ry
     estimated scf accuracy    <       6.68413268 Ry

     total magnetization       =    73.43 Bohr mag/cell
     absolute magnetization    =    73.77 Bohr mag/cell

     iteration #  8     ecut=    44.10 Ry     beta=0.10
     Davidson diagonalization with overlap
     ethr =  8.44E-04,  avg # of iterations =  1.0

     negative rho (up, down):  6.076E-03 5.944E-03
 
     Adding external electric field

     Computed dipole along edir(3) : 
        Dipole               -0.0900 Ry au,         -0.2288 Debye
        Dipole field         -0.0001 Ry au
 
        Potential amp.        0.0132 Ry
        Total length         73.7482 bohr
 
 
     Adding external electric field

     Computed dipole along edir(3) : 
        Dipole               -0.0900 Ry au,         -0.2288 Debye
        Dipole field         -0.0001 Ry au
 
        Potential amp.        0.0132 Ry
        Total length         73.7482 bohr
 
 
     Magnetic moment per site:
     atom:    1    charge:    3.2269    magn:    1.2309    constr:    0.0000
     atom:    2    charge:    3.2269    magn:    1.2309    constr:    0.0000
     atom:    3    charge:    3.2294    magn:    1.2296    constr:    0.0000
     atom:    4    charge:    3.2153    magn:    1.2273    constr:    0.0000
     atom:    5    charge:    3.2091    magn:    1.2095    constr:    0.0000
     atom:    6    charge:    3.2153    magn:    1.2273    constr:    0.0000
     atom:    7    charge:    3.1988    magn:    1.1612    constr:    0.0000
     atom:    8    charge:    3.1988    magn:    1.1613    constr:    0.0000
     atom:    9    charge:    3.2071    magn:    1.2181    constr:    0.0000
     atom:   10    charge:    3.1964    magn:    1.2192    constr:    0.0000
     atom:   11    charge:    3.1972    magn:    1.2208    constr:    0.0000
     atom:   12    charge:    3.1964    magn:    1.2192    constr:    0.0000
     atom:   13    charge:    3.1984    magn:    1.2189    constr:    0.0000
     atom:   14    charge:    3.1984    magn:    1.2189    constr:    0.0000
     atom:   15    charge:    3.1977    magn:    1.2183    constr:    0.0000
     atom:   16    charge:    3.1970    magn:    1.2138    constr:    0.0000
     atom:   17    charge:    3.1972    magn:    1.2184    constr:    0.0000
     atom:   18    charge:    3.1970    magn:    1.2138    constr:    0.0000
     atom:   19    charge:    3.1982    magn:    1.2172    constr:    0.0000
     atom:   20    charge:    3.1982    magn:    1.2172    constr:    0.0000
     atom:   21    charge:    3.1978    magn:    1.2177    constr:    0.0000
     atom:   22    charge:    3.1986    magn:    1.2196    constr:    0.0000
     atom:   23    charge:    3.1989    magn:    1.2185    constr:    0.0000
     atom:   24    charge:    3.1986    magn:    1.2196    constr:    0.0000
     atom:   25    charge:    3.1980    magn:    1.2175    constr:    0.0000
     atom:   26    charge:    3.1980    magn:    1.2174    constr:    0.0000
     atom:   27    charge:    3.1976    magn:    1.2130    constr:    0.0000
     atom:   28    charge:    3.2070    magn:    1.2157    constr:    0.0000
     atom:   29    charge:    3.2073    magn:    1.2161    constr:    0.0000
     atom:   30    charge:    3.2070    magn:    1.2157    constr:    0.0000
     atom:   31    charge:    3.2127    magn:    1.2237    constr:    0.0000
     atom:   32    charge:    3.2127    magn:    1.2236    constr:    0.0000
     atom:   33    charge:    3.2129    magn:    1.2237    constr:    0.0000
     atom:   34    charge:    3.2309    magn:    1.2244    constr:    0.0000
     atom:   35    charge:    3.2305    magn:    1.2248    constr:    0.0000
     atom:   36    charge:    3.2309    magn:    1.2244    constr:    0.0000
     atom:   37    charge:    0.6177    magn:    0.4070    constr:    0.0000

     total cpu time spent up to now is      906.7 secs

     total energy              =   -2896.07693464 Ry
     Harris-Foulkes estimate   =   -2895.98925081 Ry
     estimated scf accuracy    <       1.02386057 Ry

     total magnetization       =    72.78 Bohr mag/cell
     absolute magnetization    =    73.23 Bohr mag/cell

     iteration #  9     ecut=    44.10 Ry     beta=0.10
     Davidson diagonalization with overlap
     ethr =  3.12E-04,  avg # of iterations =  5.6

     negative rho (up, down):  6.804E-03 8.113E-03
 
     Adding external electric field

     Computed dipole along edir(3) : 
        Dipole                0.0382 Ry au,          0.0971 Debye
        Dipole field          0.0000 Ry au
 
        Potential amp.       -0.0056 Ry
        Total length         73.7482 bohr
 
 
     Adding external electric field

     Computed dipole along edir(3) : 
        Dipole                0.0382 Ry au,          0.0971 Debye
        Dipole field          0.0000 Ry au
 
        Potential amp.       -0.0056 Ry
        Total length         73.7482 bohr
 
 
     Magnetic moment per site:
     atom:    1    charge:    3.2202    magn:    1.1395    constr:    0.0000
     atom:    2    charge:    3.2202    magn:    1.1395    constr:    0.0000
     atom:    3    charge:    3.2272    magn:    1.1352    constr:    0.0000
     atom:    4    charge:    3.2036    magn:    1.1446    constr:    0.0000
     atom:    5    charge:    3.1972    magn:    1.1141    constr:    0.0000
     atom:    6    charge:    3.2036    magn:    1.1446    constr:    0.0000
     atom:    7    charge:    3.1905    magn:    1.0293    constr:    0.0000
     atom:    8    charge:    3.1905    magn:    1.0293    constr:    0.0000
     atom:    9    charge:    3.2042    magn:    1.1206    constr:    0.0000
     atom:   10    charge:    3.1931    magn:    1.1276    constr:    0.0000
     atom:   11    charge:    3.1956    magn:    1.1293    constr:    0.0000
     atom:   12    charge:    3.1931    magn:    1.1276    constr:    0.0000
     atom:   13    charge:    3.1947    magn:    1.1278    constr:    0.0000
     atom:   14    charge:    3.1947    magn:    1.1278    constr:    0.0000
     atom:   15    charge:    3.1933    magn:    1.1277    constr:    0.0000
     atom:   16    charge:    3.1982    magn:    1.1184    constr:    0.0000
     atom:   17    charge:    3.1984    magn:    1.1250    constr:    0.0000
     atom:   18    charge:    3.1982    magn:    1.1184    constr:    0.0000
     atom:   19    charge:    3.1982    magn:    1.1221    constr:    0.0000
     atom:   20    charge:    3.1982    magn:    1.1221    constr:    0.0000
     atom:   21    charge:    3.1982    magn:    1.1218    constr:    0.0000
     atom:   22    charge:    3.1963    magn:    1.1256    constr:    0.0000
     atom:   23    charge:    3.1954    magn:    1.1256    constr:    0.0000
     atom:   24    charge:    3.1963    magn:    1.1256    constr:    0.0000
     atom:   25    charge:    3.1912    magn:    1.1278    constr:    0.0000
     atom:   26    charge:    3.1912    magn:    1.1278    constr:    0.0000
     atom:   27    charge:    3.1911    magn:    1.1230    constr:    0.0000
     atom:   28    charge:    3.1977    magn:    1.1258    constr:    0.0000
     atom:   29    charge:    3.1976    magn:    1.1260    constr:    0.0000
     atom:   30    charge:    3.1977    magn:    1.1258    constr:    0.0000
     atom:   31    charge:    3.2046    magn:    1.1341    constr:    0.0000
     atom:   32    charge:    3.2046    magn:    1.1341    constr:    0.0000
     atom:   33    charge:    3.2042    magn:    1.1351    constr:    0.0000
     atom:   34    charge:    3.2232    magn:    1.1311    constr:    0.0000
     atom:   35    charge:    3.2234    magn:    1.1310    constr:    0.0000
     atom:   36    charge:    3.2232    magn:    1.1311    constr:    0.0000
     atom:   37    charge:    0.6187    magn:    0.3158    constr:    0.0000

     total cpu time spent up to now is     1019.7 secs

     total energy              =   -2896.55760485 Ry
     Harris-Foulkes estimate   =   -2896.11204694 Ry
     estimated scf accuracy    <       0.84116124 Ry

     total magnetization       =    71.71 Bohr mag/cell
     absolute magnetization    =    72.32 Bohr mag/cell

     iteration # 10     ecut=    44.10 Ry     beta=0.10
     Davidson diagonalization with overlap
     ethr =  2.56E-04,  avg # of iterations =  5.7

     negative rho (up, down):  1.051E-02 1.093E-02
 
     Adding external electric field

     Computed dipole along edir(3) : 
        Dipole                0.0694 Ry au,          0.1765 Debye
        Dipole field          0.0001 Ry au
 
        Potential amp.       -0.0101 Ry
        Total length         73.7482 bohr
 
 
     Adding external electric field

     Computed dipole along edir(3) : 
        Dipole                0.0694 Ry au,          0.1765 Debye
        Dipole field          0.0001 Ry au
 
        Potential amp.       -0.0101 Ry
        Total length         73.7482 bohr
 
 
     Magnetic moment per site:
     atom:    1    charge:    3.2220    magn:    1.0820    constr:    0.0000
     atom:    2    charge:    3.2220    magn:    1.0820    constr:    0.0000
     atom:    3    charge:    3.2232    magn:    1.0830    constr:    0.0000
     atom:    4    charge:    3.2029    magn:    1.0914    constr:    0.0000
     atom:    5    charge:    3.1970    magn:    1.0522    constr:    0.0000
     atom:    6    charge:    3.2029    magn:    1.0914    constr:    0.0000
     atom:    7    charge:    3.1832    magn:    0.9505    constr:    0.0000
     atom:    8    charge:    3.1832    magn:    0.9505    constr:    0.0000
     atom:    9    charge:    3.1969    magn:    1.0669    constr:    0.0000
     atom:   10    charge:    3.1913    magn:    1.0722    constr:    0.0000
     atom:   11    charge:    3.1953    magn:    1.0734    constr:    0.0000
     atom:   12    charge:    3.1913    magn:    1.0722    constr:    0.0000
     atom:   13    charge:    3.1962    magn:    1.0700    constr:    0.0000
     atom:   14    charge:    3.1962    magn:    1.0700    constr:    0.0000
     atom:   15    charge:    3.1954    magn:    1.0694    constr:    0.0000
     atom:   16    charge:    3.1961    magn:    1.0622    constr:    0.0000
     atom:   17    charge:    3.1977    magn:    1.0691    constr:    0.0000
     atom:   18    charge:    3.1961    magn:    1.0622    constr:    0.0000
     atom:   19    charge:    3.1963    magn:    1.0659    constr:    0.0000
     atom:   20    charge:    3.1963    magn:    1.0659    constr:    0.0000
     atom:   21    charge:    3.1955    magn:    1.0658    constr:    0.0000
     atom:   22    charge:    3.1947    magn:    1.0691    constr:    0.0000
     atom:   23    charge:    3.1950    magn:    1.0683    constr:    0.0000
     atom:   24    charge:    3.1947    magn:    1.0691    constr:    0.0000
     atom:   25    charge:    3.1910    magn:    1.0705    constr:    0.0000
     atom:   26    charge:    3.1910    magn:    1.0705    constr:    0.0000
     atom:   27    charge:    3.1902    magn:    1.0665    constr:    0.0000
     atom:   28    charge:    3.1940    magn:    1.0714    constr:    0.0000
     atom:   29    charge:    3.1948    magn:    1.0706    constr:    0.0000
     atom:   30    charge:    3.1940    magn:    1.0714    constr:    0.0000
     atom:   31    charge:    3.2018    magn:    1.0805    constr:    0.0000
     atom:   32    charge:    3.2018    magn:    1.0805    constr:    0.0000
     atom:   33    charge:    3.2012    magn:    1.0819    constr:    0.0000
     atom:   34    charge:    3.2237    magn:    1.0744    constr:    0.0000
     atom:   35    charge:    3.2240    magn:    1.0742    constr:    0.0000
     atom:   36    charge:    3.2237    magn:    1.0744    constr:    0.0000
     atom:   37    charge:    0.6186    magn:    0.2600    constr:    0.0000

     total cpu time spent up to now is     1133.5 secs

     total energy              =   -2896.85124421 Ry
     Harris-Foulkes estimate   =   -2896.64855663 Ry
     estimated scf accuracy    <       1.55744760 Ry

     total magnetization       =    67.89 Bohr mag/cell
     absolute magnetization    =    69.82 Bohr mag/cell

     iteration # 11     ecut=    44.10 Ry     beta=0.10
     Davidson diagonalization with overlap
     ethr =  2.56E-04,  avg # of iterations =  1.0

     negative rho (up, down):  1.421E-02 1.355E-02
 
     Adding external electric field

     Computed dipole along edir(3) : 
        Dipole                0.0148 Ry au,          0.0376 Debye
        Dipole field          0.0000 Ry au
 
        Potential amp.       -0.0022 Ry
        Total length         73.7482 bohr
 
 
     Adding external electric field

     Computed dipole along edir(3) : 
        Dipole                0.0148 Ry au,          0.0376 Debye
        Dipole field          0.0000 Ry au
 
        Potential amp.       -0.0022 Ry
        Total length         73.7482 bohr
 
 
     Magnetic moment per site:
     atom:    1    charge:    3.2207    magn:    1.0322    constr:    0.0000
     atom:    2    charge:    3.2207    magn:    1.0322    constr:    0.0000
     atom:    3    charge:    3.2255    magn:    1.0328    constr:    0.0000
     atom:    4    charge:    3.2062    magn:    1.0417    constr:    0.0000
     atom:    5    charge:    3.1986    magn:    0.9933    constr:    0.0000
     atom:    6    charge:    3.2062    magn:    1.0417    constr:    0.0000
     atom:    7    charge:    3.1844    magn:    0.8705    constr:    0.0000
     atom:    8    charge:    3.1844    magn:    0.8705    constr:    0.0000
     atom:    9    charge:    3.1998    magn:    1.0120    constr:    0.0000
     atom:   10    charge:    3.1933    magn:    1.0192    constr:    0.0000
     atom:   11    charge:    3.1957    magn:    1.0219    constr:    0.0000
     atom:   12    charge:    3.1933    magn:    1.0192    constr:    0.0000
     atom:   13    charge:    3.1963    magn:    1.0173    constr:    0.0000
     atom:   14    charge:    3.1963    magn:    1.0173    constr:    0.0000
     atom:   15    charge:    3.1976    magn:    1.0151    constr:    0.0000
     atom:   16    charge:    3.1957    magn:    1.0088    constr:    0.0000
     atom:   17    charge:    3.1959    magn:    1.0176    constr:    0.0000
     atom:   18    charge:    3.1957    magn:    1.0088    constr:    0.0000
     atom:   19    charge:    3.1956    magn:    1.0136    constr:    0.0000
     atom:   20    charge:    3.1956    magn:    1.0136    constr:    0.0000
     atom:   21    charge:    3.1957    magn:    1.0120    constr:    0.0000
     atom:   22    charge:    3.1957    magn:    1.0163    constr:    0.0000
     atom:   23    charge:    3.1956    magn:    1.0159    constr:    0.0000
     atom:   24    charge:    3.1957    magn:    1.0163    constr:    0.0000
     atom:   25    charge:    3.1934    magn:    1.0162    constr:    0.0000
     atom:   26    charge:    3.1934    magn:    1.0162    constr:    0.0000
     atom:   27    charge:    3.1931    magn:    1.0132    constr:    0.0000
     atom:   28    charge:    3.1977    magn:    1.0188    constr:    0.0000
     atom:   29    charge:    3.1976    magn:    1.0184    constr:    0.0000
     atom:   30    charge:    3.1977    magn:    1.0187    constr:    0.0000
     atom:   31    charge:    3.2040    magn:    1.0308    constr:    0.0000
     atom:   32    charge:    3.2040    magn:    1.0308    constr:    0.0000
     atom:   33    charge:    3.2041    magn:    1.0318    constr:    0.0000
     atom:   34    charge:    3.2239    magn:    1.0260    constr:    0.0000
     atom:   35    charge:    3.2241    magn:    1.0262    constr:    0.0000
     atom:   36    charge:    3.2239    magn:    1.0260    constr:    0.0000
     atom:   37    charge:    0.6142    magn:    0.2032    constr:    0.0000

     total cpu time spent up to now is     1226.8 secs

     total energy              =   -2896.95790379 Ry
     Harris-Foulkes estimate   =   -2896.88152085 Ry
     estimated scf accuracy    <       2.76228049 Ry

     total magnetization       =    65.94 Bohr mag/cell
     absolute magnetization    =    68.96 Bohr mag/cell

     iteration # 12     ecut=    44.10 Ry     beta=0.10
     Davidson diagonalization with overlap
     ethr =  2.56E-04,  avg # of iterations =  6.2

     negative rho (up, down):  1.177E-02 1.226E-02
 
     Adding external electric field

     Computed dipole along edir(3) : 
        Dipole                0.0139 Ry au,          0.0352 Debye
        Dipole field          0.0000 Ry au
 
        Potential amp.       -0.0020 Ry
        Total length         73.7482 bohr
 
 
     Adding external electric field

     Computed dipole along edir(3) : 
        Dipole                0.0139 Ry au,          0.0352 Debye
        Dipole field          0.0000 Ry au
 
        Potential amp.       -0.0020 Ry
        Total length         73.7482 bohr
 
 
     Magnetic moment per site:
     atom:    1    charge:    3.2175    magn:    1.0403    constr:    0.0000
     atom:    2    charge:    3.2175    magn:    1.0403    constr:    0.0000
     atom:    3    charge:    3.2161    magn:    1.0458    constr:    0.0000
     atom:    4    charge:    3.2029    magn:    1.0516    constr:    0.0000
     atom:    5    charge:    3.2000    magn:    0.9997    constr:    0.0000
     atom:    6    charge:    3.2029    magn:    1.0516    constr:    0.0000
     atom:    7    charge:    3.1891    magn:    0.8764    constr:    0.0000
     atom:    8    charge:    3.1891    magn:    0.8764    constr:    0.0000
     atom:    9    charge:    3.1990    magn:    1.0204    constr:    0.0000
     atom:   10    charge:    3.1949    magn:    1.0269    constr:    0.0000
     atom:   11    charge:    3.2001    magn:    1.0274    constr:    0.0000
     atom:   12    charge:    3.1949    magn:    1.0269    constr:    0.0000
     atom:   13    charge:    3.1976    magn:    1.0246    constr:    0.0000
     atom:   14    charge:    3.1976    magn:    1.0246    constr:    0.0000
     atom:   15    charge:    3.1959    magn:    1.0249    constr:    0.0000
     atom:   16    charge:    3.1974    magn:    1.0160    constr:    0.0000
     atom:   17    charge:    3.1987    magn:    1.0238    constr:    0.0000
     atom:   18    charge:    3.1974    magn:    1.0160    constr:    0.0000
     atom:   19    charge:    3.1984    magn:    1.0200    constr:    0.0000
     atom:   20    charge:    3.1984    magn:    1.0200    constr:    0.0000
     atom:   21    charge:    3.1975    magn:    1.0190    constr:    0.0000
     atom:   22    charge:    3.1980    magn:    1.0232    constr:    0.0000
     atom:   23    charge:    3.1983    magn:    1.0228    constr:    0.0000
     atom:   24    charge:    3.1980    magn:    1.0232    constr:    0.0000
     atom:   25    charge:    3.1959    magn:    1.0233    constr:    0.0000
     atom:   26    charge:    3.1959    magn:    1.0233    constr:    0.0000
     atom:   27    charge:    3.1952    magn:    1.0213    constr:    0.0000
     atom:   28    charge:    3.1973    magn:    1.0273    constr:    0.0000
     atom:   29    charge:    3.1980    magn:    1.0263    constr:    0.0000
     atom:   30    charge:    3.1973    magn:    1.0273    constr:    0.0000
     atom:   31    charge:    3.2027    magn:    1.0392    constr:    0.0000
     atom:   32    charge:    3.2027    magn:    1.0392    constr:    0.0000
     atom:   33    charge:    3.2017    magn:    1.0410    constr:    0.0000
     atom:   34    charge:    3.2166    magn:    1.0375    constr:    0.0000
     atom:   35    charge:    3.2175    magn:    1.0371    constr:    0.0000
     atom:   36    charge:    3.2166    magn:    1.0375    constr:    0.0000
     atom:   37    charge:    0.6113    magn:    0.2062    constr:    0.0000

     total cpu time spent up to now is     1343.2 secs

     total energy              =   -2896.93588157 Ry
     Harris-Foulkes estimate   =   -2896.98796165 Ry
     estimated scf accuracy    <       0.79172223 Ry

     total magnetization       =    64.42 Bohr mag/cell
     absolute magnetization    =    68.44 Bohr mag/cell

     iteration # 13     ecut=    44.10 Ry     beta=0.10
     Davidson diagonalization with overlap
     ethr =  2.41E-04,  avg # of iterations =  2.2

     negative rho (up, down):  1.541E-02 1.524E-02
 
     Adding external electric field

     Computed dipole along edir(3) : 
        Dipole               -0.0329 Ry au,         -0.0835 Debye
        Dipole field         -0.0000 Ry au
 
        Potential amp.        0.0048 Ry
        Total length         73.7482 bohr
 
 
     Adding external electric field

     Computed dipole along edir(3) : 
        Dipole               -0.0329 Ry au,         -0.0835 Debye
        Dipole field         -0.0000 Ry au
 
        Potential amp.        0.0048 Ry
        Total length         73.7482 bohr
 
 
     Magnetic moment per site:
     atom:    1    charge:    3.2159    magn:    0.9855    constr:    0.0000
     atom:    2    charge:    3.2159    magn:    0.9855    constr:    0.0000
     atom:    3    charge:    3.2154    magn:    0.9942    constr:    0.0000
     atom:    4    charge:    3.2077    magn:    1.0009    constr:    0.0000
     atom:    5    charge:    3.2035    magn:    0.9333    constr:    0.0000
     atom:    6    charge:    3.2077    magn:    1.0009    constr:    0.0000
     atom:    7    charge:    3.1923    magn:    0.7800    constr:    0.0000
     atom:    8    charge:    3.1923    magn:    0.7800    constr:    0.0000
     atom:    9    charge:    3.2004    magn:    0.9653    constr:    0.0000
     atom:   10    charge:    3.2000    magn:    0.9708    constr:    0.0000
     atom:   11    charge:    3.2037    magn:    0.9731    constr:    0.0000
     atom:   12    charge:    3.2000    magn:    0.9708    constr:    0.0000
     atom:   13    charge:    3.2006    magn:    0.9686    constr:    0.0000
     atom:   14    charge:    3.2006    magn:    0.9686    constr:    0.0000
     atom:   15    charge:    3.2006    magn:    0.9675    constr:    0.0000
     atom:   16    charge:    3.1997    magn:    0.9600    constr:    0.0000
     atom:   17    charge:    3.1992    magn:    0.9694    constr:    0.0000
     atom:   18    charge:    3.1997    magn:    0.9600    constr:    0.0000
     atom:   19    charge:    3.2001    magn:    0.9644    constr:    0.0000
     atom:   20    charge:    3.2001    magn:    0.9644    constr:    0.0000
     atom:   21    charge:    3.2004    magn:    0.9608    constr:    0.0000
     atom:   22    charge:    3.2018    magn:    0.9670    constr:    0.0000
     atom:   23    charge:    3.2011    magn:    0.9686    constr:    0.0000
     atom:   24    charge:    3.2018    magn:    0.9670    constr:    0.0000
     atom:   25    charge:    3.2006    magn:    0.9662    constr:    0.0000
     atom:   26    charge:    3.2006    magn:    0.9662    constr:    0.0000
     atom:   27    charge:    3.2011    magn:    0.9673    constr:    0.0000
     atom:   28    charge:    3.2009    magn:    0.9759    constr:    0.0000
     atom:   29    charge:    3.2012    magn:    0.9750    constr:    0.0000
     atom:   30    charge:    3.2009    magn:    0.9758    constr:    0.0000
     atom:   31    charge:    3.2068    magn:    0.9889    constr:    0.0000
     atom:   32    charge:    3.2068    magn:    0.9889    constr:    0.0000
     atom:   33    charge:    3.2063    magn:    0.9898    constr:    0.0000
     atom:   34    charge:    3.2171    magn:    0.9880    constr:    0.0000
     atom:   35    charge:    3.2171    magn:    0.9888    constr:    0.0000
     atom:   36    charge:    3.2171    magn:    0.9880    constr:    0.0000
     atom:   37    charge:    0.5987    magn:    0.1291    constr:    0.0000

     total cpu time spent up to now is     1440.7 secs

     total energy              =   -2897.01358398 Ry
     Harris-Foulkes estimate   =   -2896.95616338 Ry
     estimated scf accuracy    <       0.20567643 Ry

     total magnetization       =    64.29 Bohr mag/cell
     absolute magnetization    =    68.24 Bohr mag/cell

     iteration # 14     ecut=    44.10 Ry     beta=0.10
     Davidson diagonalization with overlap
     ethr =  6.27E-05,  avg # of iterations =  7.7

     negative rho (up, down):  1.454E-02 1.483E-02
 
     Adding external electric field

     Computed dipole along edir(3) : 
        Dipole               -0.0583 Ry au,         -0.1481 Debye
        Dipole field         -0.0001 Ry au
 
        Potential amp.        0.0085 Ry
        Total length         73.7482 bohr
 
 
     Adding external electric field

     Computed dipole along edir(3) : 
        Dipole               -0.0583 Ry au,         -0.1481 Debye
        Dipole field         -0.0001 Ry au
 
        Potential amp.        0.0085 Ry
        Total length         73.7482 bohr
 
 
     Magnetic moment per site:
     atom:    1    charge:    3.2160    magn:    0.9809    constr:    0.0000
     atom:    2    charge:    3.2160    magn:    0.9810    constr:    0.0000
     atom:    3    charge:    3.2157    magn:    0.9907    constr:    0.0000
     atom:    4    charge:    3.2074    magn:    0.9973    constr:    0.0000
     atom:    5    charge:    3.2033    magn:    0.9269    constr:    0.0000
     atom:    6    charge:    3.2074    magn:    0.9973    constr:    0.0000
     atom:    7    charge:    3.1915    magn:    0.7697    constr:    0.0000
     atom:    8    charge:    3.1915    magn:    0.7697    constr:    0.0000
     atom:    9    charge:    3.2018    magn:    0.9599    constr:    0.0000
     atom:   10    charge:    3.1999    magn:    0.9658    constr:    0.0000
     atom:   11    charge:    3.2034    magn:    0.9684    constr:    0.0000
     atom:   12    charge:    3.1999    magn:    0.9658    constr:    0.0000
     atom:   13    charge:    3.2013    magn:    0.9631    constr:    0.0000
     atom:   14    charge:    3.2013    magn:    0.9631    constr:    0.0000
     atom:   15    charge:    3.2018    magn:    0.9616    constr:    0.0000
     atom:   16    charge:    3.1994    magn:    0.9553    constr:    0.0000
     atom:   17    charge:    3.1995    magn:    0.9640    constr:    0.0000
     atom:   18    charge:    3.1994    magn:    0.9553    constr:    0.0000
     atom:   19    charge:    3.2000    magn:    0.9593    constr:    0.0000
     atom:   20    charge:    3.2000    magn:    0.9593    constr:    0.0000
     atom:   21    charge:    3.1996    magn:    0.9560    constr:    0.0000
     atom:   22    charge:    3.2009    magn:    0.9627    constr:    0.0000
     atom:   23    charge:    3.2012    magn:    0.9638    constr:    0.0000
     atom:   24    charge:    3.2009    magn:    0.9627    constr:    0.0000
     atom:   25    charge:    3.2000    magn:    0.9614    constr:    0.0000
     atom:   26    charge:    3.2000    magn:    0.9614    constr:    0.0000
     atom:   27    charge:    3.1999    magn:    0.9635    constr:    0.0000
     atom:   28    charge:    3.2016    magn:    0.9713    constr:    0.0000
     atom:   29    charge:    3.2018    magn:    0.9705    constr:    0.0000
     atom:   30    charge:    3.2016    magn:    0.9713    constr:    0.0000
     atom:   31    charge:    3.2068    magn:    0.9851    constr:    0.0000
     atom:   32    charge:    3.2068    magn:    0.9851    constr:    0.0000
     atom:   33    charge:    3.2061    magn:    0.9859    constr:    0.0000
     atom:   34    charge:    3.2171    magn:    0.9845    constr:    0.0000
     atom:   35    charge:    3.2185    magn:    0.9843    constr:    0.0000
     atom:   36    charge:    3.2172    magn:    0.9845    constr:    0.0000
     atom:   37    charge:    0.5986    magn:    0.1197    constr:    0.0000

     total cpu time spent up to now is     1563.5 secs

     total energy              =   -2897.03404204 Ry
     Harris-Foulkes estimate   =   -2897.03164221 Ry
     estimated scf accuracy    <       0.03638250 Ry

     total magnetization       =    62.39 Bohr mag/cell
     absolute magnetization    =    67.53 Bohr mag/cell

     iteration # 15     ecut=    44.10 Ry     beta=0.10
     Davidson diagonalization with overlap
     ethr =  1.11E-05,  avg # of iterations =  8.2

     negative rho (up, down):  1.379E-02 1.451E-02
 
     Adding external electric field

     Computed dipole along edir(3) : 
        Dipole               -0.0259 Ry au,         -0.0657 Debye
        Dipole field         -0.0000 Ry au
 
        Potential amp.        0.0038 Ry
        Total length         73.7482 bohr
 
 
     Adding external electric field

     Computed dipole along edir(3) : 
        Dipole               -0.0259 Ry au,         -0.0657 Debye
        Dipole field         -0.0000 Ry au
 
        Potential amp.        0.0038 Ry
        Total length         73.7482 bohr
 
 
     Magnetic moment per site:
     atom:    1    charge:    3.2161    magn:    0.9774    constr:    0.0000
     atom:    2    charge:    3.2161    magn:    0.9774    constr:    0.0000
     atom:    3    charge:    3.2160    magn:    0.9876    constr:    0.0000
     atom:    4    charge:    3.2076    magn:    0.9940    constr:    0.0000
     atom:    5    charge:    3.2034    magn:    0.9218    constr:    0.0000
     atom:    6    charge:    3.2076    magn:    0.9940    constr:    0.0000
     atom:    7    charge:    3.1912    magn:    0.7621    constr:    0.0000
     atom:    8    charge:    3.1912    magn:    0.7621    constr:    0.0000
     atom:    9    charge:    3.2016    magn:    0.9564    constr:    0.0000
     atom:   10    charge:    3.1997    magn:    0.9620    constr:    0.0000
     atom:   11    charge:    3.2031    magn:    0.9648    constr:    0.0000
     atom:   12    charge:    3.1997    magn:    0.9620    constr:    0.0000
     atom:   13    charge:    3.2007    magn:    0.9596    constr:    0.0000
     atom:   14    charge:    3.2007    magn:    0.9596    constr:    0.0000
     atom:   15    charge:    3.2012    magn:    0.9581    constr:    0.0000
     atom:   16    charge:    3.1990    magn:    0.9517    constr:    0.0000
     atom:   17    charge:    3.1990    magn:    0.9604    constr:    0.0000
     atom:   18    charge:    3.1990    magn:    0.9517    constr:    0.0000
     atom:   19    charge:    3.1997    magn:    0.9556    constr:    0.0000
     atom:   20    charge:    3.1997    magn:    0.9556    constr:    0.0000
     atom:   21    charge:    3.1994    magn:    0.9521    constr:    0.0000
     atom:   22    charge:    3.2008    magn:    0.9589    constr:    0.0000
     atom:   23    charge:    3.2011    magn:    0.9602    constr:    0.0000
     atom:   24    charge:    3.2008    magn:    0.9589    constr:    0.0000
     atom:   25    charge:    3.2004    magn:    0.9572    constr:    0.0000
     atom:   26    charge:    3.2004    magn:    0.9572    constr:    0.0000
     atom:   27    charge:    3.2003    magn:    0.9595    constr:    0.0000
     atom:   28    charge:    3.2022    magn:    0.9675    constr:    0.0000
     atom:   29    charge:    3.2023    magn:    0.9668    constr:    0.0000
     atom:   30    charge:    3.2022    magn:    0.9675    constr:    0.0000
     atom:   31    charge:    3.2073    magn:    0.9815    constr:    0.0000
     atom:   32    charge:    3.2073    magn:    0.9815    constr:    0.0000
     atom:   33    charge:    3.2068    magn:    0.9821    constr:    0.0000
     atom:   34    charge:    3.2171    magn:    0.9816    constr:    0.0000
     atom:   35    charge:    3.2179    magn:    0.9819    constr:    0.0000
     atom:   36    charge:    3.2171    magn:    0.9816    constr:    0.0000
     atom:   37    charge:    0.5986    magn:    0.1132    constr:    0.0000

     total cpu time spent up to now is     1693.2 secs

     total energy              =   -2897.03706098 Ry
     Harris-Foulkes estimate   =   -2897.03667028 Ry
     estimated scf accuracy    <       0.09856825 Ry

     total magnetization       =    62.18 Bohr mag/cell
     absolute magnetization    =    67.50 Bohr mag/cell

     iteration # 16     ecut=    44.10 Ry     beta=0.10
     Davidson diagonalization with overlap
     ethr =  1.11E-05,  avg # of iterations =  1.0

     negative rho (up, down):  1.294E-02 1.425E-02
 
     Adding external electric field

     Computed dipole along edir(3) : 
        Dipole               -0.0569 Ry au,         -0.1446 Debye
        Dipole field         -0.0001 Ry au
 
        Potential amp.        0.0083 Ry
        Total length         73.7482 bohr
 
 
     Adding external electric field

     Computed dipole along edir(3) : 
        Dipole               -0.0569 Ry au,         -0.1446 Debye
        Dipole field         -0.0001 Ry au
 
        Potential amp.        0.0083 Ry
        Total length         73.7482 bohr
 
 
     Magnetic moment per site:
     atom:    1    charge:    3.2163    magn:    0.9747    constr:    0.0000
     atom:    2    charge:    3.2163    magn:    0.9747    constr:    0.0000
     atom:    3    charge:    3.2164    magn:    0.9859    constr:    0.0000
     atom:    4    charge:    3.2085    magn:    0.9914    constr:    0.0000
     atom:    5    charge:    3.2040    magn:    0.9169    constr:    0.0000
     atom:    6    charge:    3.2085    magn:    0.9914    constr:    0.0000
     atom:    7    charge:    3.1916    magn:    0.7538    constr:    0.0000
     atom:    8    charge:    3.1916    magn:    0.7538    constr:    0.0000
     atom:    9    charge:    3.2017    magn:    0.9540    constr:    0.0000
     atom:   10    charge:    3.1997    magn:    0.9590    constr:    0.0000
     atom:   11    charge:    3.2030    magn:    0.9621    constr:    0.0000
     atom:   12    charge:    3.1997    magn:    0.9590    constr:    0.0000
     atom:   13    charge:    3.2003    magn:    0.9569    constr:    0.0000
     atom:   14    charge:    3.2003    magn:    0.9569    constr:    0.0000
     atom:   15    charge:    3.2008    magn:    0.9554    constr:    0.0000
     atom:   16    charge:    3.1990    magn:    0.9489    constr:    0.0000
     atom:   17    charge:    3.1987    magn:    0.9576    constr:    0.0000
     atom:   18    charge:    3.1990    magn:    0.9489    constr:    0.0000
     atom:   19    charge:    3.1995    magn:    0.9527    constr:    0.0000
     atom:   20    charge:    3.1995    magn:    0.9527    constr:    0.0000
     atom:   21    charge:    3.1994    magn:    0.9489    constr:    0.0000
     atom:   22    charge:    3.2008    magn:    0.9560    constr:    0.0000
     atom:   23    charge:    3.2008    magn:    0.9578    constr:    0.0000
     atom:   24    charge:    3.2008    magn:    0.9560    constr:    0.0000
     atom:   25    charge:    3.2003    magn:    0.9541    constr:    0.0000
     atom:   26    charge:    3.2003    magn:    0.9541    constr:    0.0000
     atom:   27    charge:    3.2006    magn:    0.9568    constr:    0.0000
     atom:   28    charge:    3.2023    magn:    0.9655    constr:    0.0000
     atom:   29    charge:    3.2022    magn:    0.9648    constr:    0.0000
     atom:   30    charge:    3.2023    magn:    0.9655    constr:    0.0000
     atom:   31    charge:    3.2077    magn:    0.9794    constr:    0.0000
     atom:   32    charge:    3.2077    magn:    0.9794    constr:    0.0000
     atom:   33    charge:    3.2074    magn:    0.9796    constr:    0.0000
     atom:   34    charge:    3.2177    magn:    0.9797    constr:    0.0000
     atom:   35    charge:    3.2178    magn:    0.9806    constr:    0.0000
     atom:   36    charge:    3.2177    magn:    0.9797    constr:    0.0000
     atom:   37    charge:    0.5981    magn:    0.1053    constr:    0.0000

     total cpu time spent up to now is     1786.4 secs

     total energy              =   -2897.04022866 Ry
     Harris-Foulkes estimate   =   -2897.03940070 Ry
     estimated scf accuracy    <       0.10789686 Ry

     total magnetization       =    62.03 Bohr mag/cell
     absolute magnetization    =    67.48 Bohr mag/cell

     iteration # 17     ecut=    44.10 Ry     beta=0.10
     Davidson diagonalization with overlap
     ethr =  1.11E-05,  avg # of iterations =  1.0

     negative rho (up, down):  1.207E-02 1.400E-02
 
     Adding external electric field

     Computed dipole along edir(3) : 
        Dipole               -0.0456 Ry au,         -0.1158 Debye
        Dipole field         -0.0000 Ry au
 
        Potential amp.        0.0067 Ry
        Total length         73.7482 bohr
 
 
     Adding external electric field

     Computed dipole along edir(3) : 
        Dipole               -0.0456 Ry au,         -0.1158 Debye
        Dipole field         -0.0000 Ry au
 
        Potential amp.        0.0067 Ry
        Total length         73.7482 bohr
 
 
     Magnetic moment per site:
     atom:    1    charge:    3.2164    magn:    0.9739    constr:    0.0000
     atom:    2    charge:    3.2164    magn:    0.9739    constr:    0.0000
     atom:    3    charge:    3.2168    magn:    0.9857    constr:    0.0000
     atom:    4    charge:    3.2086    magn:    0.9910    constr:    0.0000
     atom:    5    charge:    3.2036    magn:    0.9147    constr:    0.0000
     atom:    6    charge:    3.2086    magn:    0.9910    constr:    0.0000
     atom:    7    charge:    3.1917    magn:    0.7488    constr:    0.0000
     atom:    8    charge:    3.1917    magn:    0.7488    constr:    0.0000
     atom:    9    charge:    3.2017    magn:    0.9535    constr:    0.0000
     atom:   10    charge:    3.1999    magn:    0.9575    constr:    0.0000
     atom:   11    charge:    3.2031    magn:    0.9610    constr:    0.0000
     atom:   12    charge:    3.1999    magn:    0.9575    constr:    0.0000
     atom:   13    charge:    3.2004    magn:    0.9557    constr:    0.0000
     atom:   14    charge:    3.2004    magn:    0.9557    constr:    0.0000
     atom:   15    charge:    3.2009    magn:    0.9541    constr:    0.0000
     atom:   16    charge:    3.1993    magn:    0.9477    constr:    0.0000
     atom:   17    charge:    3.1989    magn:    0.9562    constr:    0.0000
     atom:   18    charge:    3.1993    magn:    0.9477    constr:    0.0000
     atom:   19    charge:    3.1997    magn:    0.9514    constr:    0.0000
     atom:   20    charge:    3.1997    magn:    0.9514    constr:    0.0000
     atom:   21    charge:    3.1996    magn:    0.9474    constr:    0.0000
     atom:   22    charge:    3.2009    magn:    0.9549    constr:    0.0000
     atom:   23    charge:    3.2008    magn:    0.9569    constr:    0.0000
     atom:   24    charge:    3.2009    magn:    0.9549    constr:    0.0000
     atom:   25    charge:    3.2003    magn:    0.9528    constr:    0.0000
     atom:   26    charge:    3.2003    magn:    0.9528    constr:    0.0000
     atom:   27    charge:    3.2006    magn:    0.9559    constr:    0.0000
     atom:   28    charge:    3.2020    magn:    0.9653    constr:    0.0000
     atom:   29    charge:    3.2020    magn:    0.9645    constr:    0.0000
     atom:   30    charge:    3.2020    magn:    0.9653    constr:    0.0000
     atom:   31    charge:    3.2078    magn:    0.9789    constr:    0.0000
     atom:   32    charge:    3.2078    magn:    0.9789    constr:    0.0000
     atom:   33    charge:    3.2074    magn:    0.9791    constr:    0.0000
     atom:   34    charge:    3.2182    magn:    0.9795    constr:    0.0000
     atom:   35    charge:    3.2185    magn:    0.9803    constr:    0.0000
     atom:   36    charge:    3.2182    magn:    0.9795    constr:    0.0000
     atom:   37    charge:    0.5977    magn:    0.0999    constr:    0.0000

     total cpu time spent up to now is     1879.5 secs

     total energy              =   -2897.04213629 Ry
     Harris-Foulkes estimate   =   -2897.04143663 Ry
     estimated scf accuracy    <       0.02396377 Ry

     total magnetization       =    61.89 Bohr mag/cell
     absolute magnetization    =    67.46 Bohr mag/cell

     iteration # 18     ecut=    44.10 Ry     beta=0.10
     Davidson diagonalization with overlap
     ethr =  7.31E-06,  avg # of iterations =  1.0

     negative rho (up, down):  1.113E-02 1.391E-02
 
     Adding external electric field

     Computed dipole along edir(3) : 
        Dipole               -0.0523 Ry au,         -0.1330 Debye
        Dipole field         -0.0001 Ry au
 
        Potential amp.        0.0076 Ry
        Total length         73.7482 bohr
 
 
     Adding external electric field

     Computed dipole along edir(3) : 
        Dipole               -0.0523 Ry au,         -0.1330 Debye
        Dipole field         -0.0001 Ry au
 
        Potential amp.        0.0076 Ry
        Total length         73.7482 bohr
 
 
     Magnetic moment per site:
     atom:    1    charge:    3.2176    magn:    0.9700    constr:    0.0000
     atom:    2    charge:    3.2176    magn:    0.9700    constr:    0.0000
     atom:    3    charge:    3.2186    magn:    0.9846    constr:    0.0000
     atom:    4    charge:    3.2094    magn:    0.9882    constr:    0.0000
     atom:    5    charge:    3.2037    magn:    0.9055    constr:    0.0000
     atom:    6    charge:    3.2094    magn:    0.9882    constr:    0.0000
     atom:    7    charge:    3.1916    magn:    0.7306    constr:    0.0000
     atom:    8    charge:    3.1916    magn:    0.7306    constr:    0.0000
     atom:    9    charge:    3.2023    magn:    0.9505    constr:    0.0000
     atom:   10    charge:    3.1993    magn:    0.9527    constr:    0.0000
     atom:   11    charge:    3.2020    magn:    0.9574    constr:    0.0000
     atom:   12    charge:    3.1993    magn:    0.9527    constr:    0.0000
     atom:   13    charge:    3.1998    magn:    0.9516    constr:    0.0000
     atom:   14    charge:    3.1998    magn:    0.9516    constr:    0.0000
     atom:   15    charge:    3.2002    magn:    0.9498    constr:    0.0000
     atom:   16    charge:    3.1986    magn:    0.9442    constr:    0.0000
     atom:   17    charge:    3.1981    magn:    0.9516    constr:    0.0000
     atom:   18    charge:    3.1986    magn:    0.9442    constr:    0.0000
     atom:   19    charge:    3.1992    magn:    0.9468    constr:    0.0000
[...]
    -2.3755  -2.3552  -2.3356  -2.3209  -2.2981  -2.2689  -2.2371  -2.2249
    -2.1977  -2.1757  -2.1448  -2.1344  -2.1161  -2.1004  -2.0825  -2.0724
    -2.0662  -2.0554  -2.0491  -2.0268  -2.0095  -1.9889  -1.9772  -1.9624
    -1.9302  -1.9148  -1.9063  -1.8778  -1.8686  -1.8363  -1.8223  -1.8020
    -1.7801  -1.7617  -1.7393  -1.7324  -1.7134  -1.7002  -1.6765  -1.6538
    -1.6420  -1.6101  -1.5982  -1.5274  -1.5247  -1.4898  -1.4832  -1.4714
    -1.4592  -1.4529  -1.4334  -1.4253  -1.4081  -1.3914  -1.3489  -1.3411
    -1.3248  -1.2941  -1.2867  -1.2344  -1.1964  -1.1782  -1.1004  -0.9381
    -0.7566  -0.6275  -0.4129  -0.2164  -0.0498   0.1428   0.2185   0.3045
     0.4779   0.5556   0.8704   0.9924   1.1236   1.2724   1.5395   1.8123
     1.8466   1.9902   2.1120   2.3369   2.5503   2.8233   2.9630   3.1753
     3.5483   3.6900   3.7107   4.0203   4.1613   4.1938   4.2557   4.4006
     4.5144   4.6638   4.7754   4.8603   4.9015   5.0047   5.0833   5.1353
     5.1703   5.2751   5.3851   5.4557   5.5083   5.5636   5.6487   5.7041
     5.7558   5.8090   5.8930   5.9629   6.1147   6.1457   6.2182   6.2462
     6.2838   6.3594   6.4029   6.4458   6.4972   6.5595   6.5705   6.6769
     6.7126   6.8063   6.8659   6.9649   6.9795   7.0329   7.1356   7.1694

 ------ SPIN DOWN ----------


          k = 0.0000 0.0000 0.0000 ( 62705 PWs)   bands (ev):

   -12.4032  -8.8738  -7.5664  -6.5944  -6.4183  -6.1454  -5.9095  -5.9053
    -5.4950  -5.4073  -5.2209  -4.9447  -4.8942  -4.5888  -4.4081  -4.3090
    -4.2654  -4.2588  -4.2006  -4.1904  -4.1091  -4.0042  -4.0022  -3.8493
    -3.8299  -3.8081  -3.7155  -3.6751  -3.5848  -3.5478  -3.4871  -3.4796
    -3.3840  -3.3754  -3.3561  -3.3446  -3.2901  -3.2238  -3.1763  -3.1422
    -3.1283  -3.0906  -3.0721  -2.9953  -2.9233  -2.8799  -2.8485  -2.8271
    -2.8019  -2.7243  -2.5960  -2.5817  -2.5634  -2.5264  -2.5221  -2.4739
    -2.4536  -2.4024  -2.3977  -2.3543  -2.3413  -2.3162  -2.3084  -2.2436
    -2.2111  -2.1739  -2.1682  -2.1586  -2.1170  -2.0892  -2.0607  -2.0385
    -2.0277  -1.9932  -1.9716  -1.9136  -1.9061  -1.8779  -1.8265  -1.7975
    -1.7885  -1.7580  -1.7351  -1.7339  -1.6914  -1.6816  -1.6275  -1.5978
    -1.5762  -1.5440  -1.5254  -1.5168  -1.4978  -1.4761  -1.4655  -1.4411
    -1.4268  -1.4028  -1.3590  -1.3531  -1.3458  -1.3333  -1.3071  -1.2999
    -1.2938  -1.2810  -1.2613  -1.2350  -1.1915  -1.1565  -1.1295  -1.1223
    -1.1109  -1.0772  -1.0502  -1.0166  -0.9392  -0.9146  -0.8856  -0.8675
    -0.8393  -0.8217  -0.7899  -0.7825  -0.7467  -0.7371  -0.6550  -0.6478
    -0.6029  -0.5525  -0.5460  -0.5294  -0.5293  -0.4957  -0.4653  -0.4518
    -0.3914  -0.3673  -0.3315  -0.3271  -0.2796  -0.2628  -0.2494  -0.2282
    -0.2057  -0.1836  -0.1471  -0.1347  -0.1084  -0.1005  -0.0999  -0.0620
    -0.0524  -0.0413  -0.0352  -0.0184  -0.0174   0.0042   0.0290   0.0310
     0.0501   0.0895   0.0924   0.0965   0.1060   0.1405   0.1405   0.2088
     0.2587   0.2722   0.2759   0.2889   0.2968   0.3165   0.3181   0.3489
     0.3526   0.3750   0.3888   0.4123   0.4235   0.4301   0.4328   0.4518
     0.4607   0.4877   0.5153   0.5429   0.5595   0.6158   0.6510   0.6955
     0.7043   0.7754   0.8113   1.1120   1.1649   1.2255   1.3570   1.5906
     1.7468   1.7868   1.9057   1.9098   2.0133   2.0902   2.1719   2.3138
     2.3559   2.7284   2.8799   2.9038   3.1266   3.2111   3.3013   3.3814
     3.4201   3.4551   3.5281   3.6490   3.8097   3.9376   4.0114   4.2531
     4.5645   4.6124   4.6522   4.9478   5.0466   5.1711   5.2324   5.3891
     5.5389   5.8143   5.8403   5.8513   6.0072   6.0374   6.0423   6.0524
     6.0928   6.2549   6.3117   6.3480   6.5001   6.5479   6.5575   6.5927
     6.6329   6.8129   6.8688   7.0154   7.0911   7.1695   7.1939   7.2445
     7.2482   7.2758   7.3075   7.3386   7.3741   7.4712   7.4959   7.5096

          k = 0.0000 0.0440 0.0000 ( 62728 PWs)   bands (ev):

   -12.3964  -8.5918  -7.7676  -7.3114  -6.6018  -5.9972  -5.7526  -5.5458
    -5.2616  -5.1148  -5.0334  -4.8850  -4.8084  -4.6047  -4.5833  -4.3868
    -4.2745  -4.2412  -4.1895  -4.1626  -4.1216  -4.0097  -3.9106  -3.8360
    -3.8231  -3.7871  -3.7466  -3.6865  -3.6366  -3.5991  -3.5286  -3.4989
    -3.4948  -3.4840  -3.4542  -3.4430  -3.3332  -3.2704  -3.2325  -3.2082
    -3.1469  -3.0784  -3.0610  -3.0184  -2.9527  -2.9187  -2.8757  -2.8206
    -2.7470  -2.6962  -2.6433  -2.5975  -2.5602  -2.5581  -2.4961  -2.4844
    -2.4521  -2.4293  -2.3982  -2.3709  -2.3441  -2.2982  -2.2766  -2.2560
    -2.2422  -2.1918  -2.1559  -2.1288  -2.1119  -2.0921  -2.0630  -2.0392
    -2.0132  -1.9550  -1.9381  -1.9137  -1.8822  -1.8596  -1.8493  -1.8164
    -1.8076  -1.7729  -1.7678  -1.7460  -1.7398  -1.7229  -1.6612  -1.6295
    -1.6036  -1.5858  -1.5619  -1.5580  -1.5359  -1.5236  -1.4933  -1.4652
    -1.4376  -1.4193  -1.3833  -1.3606  -1.3510  -1.3193  -1.3007  -1.2981
    -1.2805  -1.2655  -1.2260  -1.1868  -1.1688  -1.1302  -1.1045  -1.1025
    -1.0514  -1.0258  -1.0191  -0.9752  -0.9510  -0.9302  -0.9249  -0.8912
    -0.8803  -0.8584  -0.8386  -0.8154  -0.7863  -0.7448  -0.7257  -0.7103
    -0.6966  -0.6548  -0.6282  -0.5709  -0.5314  -0.4930  -0.4881  -0.4571
    -0.4540  -0.4284  -0.4148  -0.3950  -0.3655  -0.3055  -0.3032  -0.2609
    -0.2464  -0.2422  -0.2103  -0.1941  -0.1756  -0.1699  -0.1342  -0.0966
    -0.0917  -0.0809  -0.0702  -0.0534  -0.0095   0.0148   0.0499   0.0680
     0.1030   0.1178   0.1765   0.1991   0.2007   0.2355   0.2793   0.2874
     0.2939   0.3277   0.3379   0.3478   0.3576   0.3629   0.3787   0.3934
     0.4319   0.4381   0.4401   0.4517   0.4677   0.4852   0.5107   0.5214
     0.5416   0.5565   0.5743   0.5993   0.6608   0.7989   0.8637   0.9042
     1.0602   1.0693   1.1497   1.1680   1.2670   1.3530   1.4452   1.5161
     1.6903   1.8386   1.9168   1.9854   2.1935   2.3705   2.4944   2.5323
     2.5910   2.6190   2.6813   2.7499   2.9060   3.0030   3.1366   3.2872
     3.4950   3.5112   3.6488   3.6975   3.7200   3.8792   3.9341   4.0613
     4.1119   4.2092   4.3796   4.4396   4.5670   4.5974   4.7719   4.9347
     5.0520   5.1133   5.2785   5.4241   5.5122   5.7507   5.8216   5.9468
     6.2061   6.3044   6.4044   6.5842   6.6265   6.6834   6.8069   6.9413
     7.0038   7.0716   7.2311   7.2963   7.3298   7.3824   7.4776   7.4906
     7.5626   7.5701   7.6608   7.6892   7.7513   7.7700   7.8323   7.8713

          k = 0.0538 0.0000 0.0000 ( 62649 PWs)   bands (ev):

   -12.3791  -8.4477  -7.3824  -7.0652  -6.3468  -6.3036  -6.0825  -5.7514
    -5.7394  -5.4507  -5.3004  -5.2448  -5.0534  -4.8676  -4.8249  -4.7244
    -4.5195  -4.4817  -4.2826  -4.1174  -4.0276  -3.9330  -3.9210  -3.7427
    -3.6991  -3.6449  -3.5899  -3.5678  -3.4550  -3.3750  -3.3367  -3.2861
    -3.2708  -3.2559  -3.2402  -3.2366  -3.1878  -3.1429  -3.1028  -3.1016
    -3.0626  -3.0555  -3.0302  -2.9874  -2.9697  -2.9664  -2.8280  -2.8181
    -2.7536  -2.7388  -2.6952  -2.6877  -2.6474  -2.5927  -2.5822  -2.4875
    -2.4656  -2.4483  -2.4101  -2.3770  -2.3488  -2.3351  -2.3147  -2.2788
    -2.2491  -2.2232  -2.2078  -2.1380  -2.0832  -2.0745  -1.9994  -1.9750
    -1.9704  -1.9177  -1.8807  -1.8775  -1.8529  -1.8166  -1.8039  -1.7318
    -1.7121  -1.7080  -1.6812  -1.6716  -1.6540  -1.6067  -1.5789  -1.5751
    -1.5364  -1.5164  -1.5019  -1.4915  -1.4635  -1.4605  -1.4298  -1.4194
    -1.4167  -1.4045  -1.3646  -1.3616  -1.3513  -1.3491  -1.3360  -1.3146
    -1.2859  -1.2582  -1.2403  -1.2356  -1.2266  -1.2012  -1.1471  -1.1444
    -1.0729  -1.0512  -1.0270  -0.9889  -0.9659  -0.9388  -0.9043  -0.8581
    -0.8447  -0.8311  -0.7754  -0.7509  -0.7019  -0.6967  -0.6639  -0.6579
    -0.5747  -0.5597  -0.4928  -0.4859  -0.4556  -0.4480  -0.3879  -0.3839
    -0.3565  -0.3486  -0.3263  -0.3110  -0.2980  -0.2677  -0.2491  -0.2471
    -0.2208  -0.1893  -0.1764  -0.1674  -0.1453  -0.1088  -0.0994  -0.0645
    -0.0562  -0.0416  -0.0232   0.0003   0.0174   0.0269   0.0455   0.0528
     0.0803   0.0847   0.1088   0.1146   0.1454   0.1552   0.2016   0.2083
     0.2271   0.2308   0.2539   0.2772   0.2777   0.3005   0.3100   0.3271
     0.3276   0.3645   0.4096   0.4140   0.4239   0.4345   0.4431   0.4460
     0.4597   0.4745   0.4808   0.5202   0.5300   0.5363   0.5581   0.5750
     0.5781   0.6317   0.6468   0.6909   0.7120   0.8462   0.8788   0.9995
     1.2141   1.2920   1.3545   1.8778   1.9127   2.1654   2.6139   2.6153
     2.7566   3.0966   3.3975   3.4133   3.6412   3.8029   3.8763   3.9866
     4.0708   4.2045   4.2513   4.2863   4.4158   4.5207   4.7013   4.8240
     4.8377   4.9233   5.0361   5.1009   5.1302   5.1863   5.2423   5.3702
     5.5084   5.5323   5.6313   5.8824   5.9175   5.9544   5.9632   6.0758
     6.0945   6.2539   6.2878   6.3048   6.4409   6.4686   6.5025   6.5217
     6.5682   6.6701   6.7722   6.8011   6.9071   6.9562   6.9905   6.9994
     7.1042   7.1201   7.1804   7.1926   7.2758   7.4453   7.5172   7.5175

          k = 0.0538 0.0440 0.0000 ( 62686 PWs)   bands (ev):

   -12.3740  -8.1660  -7.3645  -7.1083  -6.8462  -6.3967  -6.2443  -5.9880
    -5.7140  -5.4562  -5.2330  -5.1336  -4.8955  -4.6884  -4.5848  -4.4821
    -4.3705  -4.3153  -4.2288  -4.1425  -4.0846  -3.9812  -3.8723  -3.8237
    -3.7631  -3.7058  -3.6982  -3.5689  -3.5314  -3.4964  -3.4472  -3.4303
    -3.3903  -3.3440  -3.3310  -3.2835  -3.2380  -3.1871  -3.1062  -3.0555
    -3.0043  -2.9876  -2.9714  -2.9457  -2.8976  -2.8824  -2.8562  -2.8076
    -2.7763  -2.7308  -2.7179  -2.6698  -2.6312  -2.5730  -2.5541  -2.5165
    -2.4996  -2.4296  -2.4064  -2.3664  -2.3426  -2.3103  -2.2987  -2.2440
    -2.1998  -2.1753  -2.1456  -2.1099  -2.1045  -2.0617  -2.0529  -2.0393
    -1.9862  -1.9790  -1.9277  -1.9006  -1.8877  -1.8449  -1.8215  -1.7936
    -1.7817  -1.7470  -1.7231  -1.7019  -1.6754  -1.6566  -1.6307  -1.6281
    -1.5996  -1.5706  -1.5244  -1.5085  -1.4936  -1.4506  -1.4234  -1.3999
    -1.3934  -1.3609  -1.3565  -1.3326  -1.3033  -1.2964  -1.2760  -1.2514
    -1.2379  -1.2211  -1.2116  -1.1949  -1.1723  -1.1489  -1.1258  -1.0979
    -1.0714  -1.0657  -1.0177  -0.9940  -0.9513  -0.9264  -0.9101  -0.8961
    -0.8724  -0.8387  -0.8127  -0.7977  -0.7723  -0.7429  -0.7367  -0.7055
    -0.6808  -0.6539  -0.6378  -0.6075  -0.5406  -0.5131  -0.4794  -0.4402
    -0.4010  -0.3795  -0.3722  -0.3462  -0.3352  -0.2998  -0.2819  -0.2704
    -0.2454  -0.2264  -0.2092  -0.1714  -0.1554  -0.1460  -0.1110  -0.1041
    -0.0775  -0.0557  -0.0250  -0.0057  -0.0019   0.0133   0.0302   0.0568
     0.0670   0.1019   0.1271   0.1508   0.1830   0.2082   0.2159   0.2311
     0.2618   0.2937   0.3019   0.3330   0.3802   0.3855   0.4066   0.4156
     0.4256   0.4374   0.4521   0.4594   0.4767   0.4882   0.5143   0.5377
     0.5439   0.5540   0.5686   0.5794   0.5958   0.6187   0.6225   0.6382
     0.6893   0.8233   0.9459   1.0955   1.1251   1.2567   1.2958   1.3471
     1.4073   1.5098   1.7365   1.8152   1.9398   2.1356   2.3280   2.5748
     2.6474   2.8134   2.9245   3.0484   3.1768   3.4519   3.5015   3.8006
     3.9227   3.9548   4.1391   4.1693   4.2556   4.2946   4.5131   4.5785
     4.7434   4.8260   4.9120   4.9868   5.0254   5.0519   5.2195   5.2263
     5.3544   5.4074   5.4380   5.5300   5.5695   5.6449   5.7418   5.7907
     5.8298   5.8944   6.1000   6.1775   6.2284   6.2838   6.3347   6.4025
     6.4279   6.5180   6.5593   6.6709   6.6990   6.7902   6.9094   6.9900
     7.0203   7.0333   7.0805   7.1002   7.2343   7.3506   7.3763   7.4695

          k = 0.0538-0.0440 0.0000 ( 62686 PWs)   bands (ev):

   -12.3740  -8.1660  -7.3644  -7.1083  -6.8462  -6.3966  -6.2444  -5.9880
    -5.7140  -5.4562  -5.2330  -5.1336  -4.8955  -4.6883  -4.5848  -4.4821
    -4.3706  -4.3152  -4.2288  -4.1425  -4.0846  -3.9812  -3.8724  -3.8237
    -3.7632  -3.7058  -3.6981  -3.5689  -3.5313  -3.4964  -3.4472  -3.4303
    -3.3903  -3.3441  -3.3309  -3.2835  -3.2379  -3.1870  -3.1062  -3.0555
    -3.0043  -2.9876  -2.9714  -2.9457  -2.8976  -2.8824  -2.8562  -2.8075
    -2.7763  -2.7308  -2.7180  -2.6698  -2.6311  -2.5729  -2.5541  -2.5166
    -2.4996  -2.4296  -2.4064  -2.3664  -2.3426  -2.3103  -2.2987  -2.2439
    -2.1999  -2.1752  -2.1455  -2.1099  -2.1045  -2.0617  -2.0530  -2.0393
    -1.9862  -1.9790  -1.9277  -1.9007  -1.8876  -1.8449  -1.8216  -1.7936
    -1.7817  -1.7470  -1.7231  -1.7019  -1.6755  -1.6566  -1.6307  -1.6281
    -1.5995  -1.5705  -1.5245  -1.5085  -1.4936  -1.4506  -1.4234  -1.3999
    -1.3934  -1.3609  -1.3565  -1.3327  -1.3033  -1.2964  -1.2760  -1.2514
    -1.2379  -1.2212  -1.2115  -1.1949  -1.1723  -1.1488  -1.1258  -1.0979
    -1.0714  -1.0658  -1.0176  -0.9939  -0.9513  -0.9264  -0.9101  -0.8961
    -0.8724  -0.8387  -0.8127  -0.7976  -0.7723  -0.7429  -0.7367  -0.7056
    -0.6809  -0.6539  -0.6378  -0.6076  -0.5407  -0.5131  -0.4794  -0.4402
    -0.4010  -0.3795  -0.3721  -0.3462  -0.3352  -0.2998  -0.2819  -0.2704
    -0.2454  -0.2264  -0.2092  -0.1714  -0.1553  -0.1460  -0.1110  -0.1041
    -0.0775  -0.0557  -0.0250  -0.0057  -0.0019   0.0133   0.0302   0.0568
     0.0670   0.1019   0.1271   0.1508   0.1830   0.2082   0.2159   0.2311
     0.2617   0.2937   0.3019   0.3330   0.3802   0.3855   0.4066   0.4156
     0.4256   0.4374   0.4521   0.4594   0.4767   0.4882   0.5143   0.5376
     0.5439   0.5539   0.5686   0.5794   0.5958   0.6187   0.6225   0.6382
     0.6893   0.8233   0.9459   1.0954   1.1251   1.2567   1.2958   1.3471
     1.4073   1.5098   1.7365   1.8152   1.9398   2.1356   2.3281   2.5748
     2.6474   2.8135   2.9245   3.0484   3.1768   3.4519   3.5015   3.8006
     3.9227   3.9548   4.1391   4.1694   4.2555   4.2946   4.5130   4.5786
     4.7436   4.8259   4.9120   4.9867   5.0255   5.0520   5.2194   5.2263
     5.3546   5.4072   5.4380   5.5299   5.5700   5.6444   5.7419   5.7909
     5.8297   5.8944   6.1001   6.1773   6.2285   6.2841   6.3345   6.4025
     6.4276   6.5180   6.5593   6.6710   6.6993   6.7901   6.9092   6.9899
     7.0203   7.0334   7.0805   7.1008   7.2337   7.3505   7.3762   7.4696

     the Fermi energy is    -0.5009 ev

!    total energy              =   -2897.12925910 Ry
     Harris-Foulkes estimate   =   -2897.12907794 Ry
     estimated scf accuracy    <       0.00000034 Ry

     The total energy is the sum of the following terms:

     one-electron contribution =  -61938.37964677 Ry
     hartree contribution      =   31268.58935098 Ry
     xc contribution           =   -1331.48059182 Ry
     ewald contribution        =   29104.25031480 Ry
     electric field correction =       0.00000264 Ry
     smearing contrib. (-TS)   =      -0.10868893 Ry

     total magnetization       =    60.53 Bohr mag/cell
     absolute magnetization    =    67.15 Bohr mag/cell

     convergence has been achieved in  17 iterations

     Forces acting on atoms (Ry/au):


     negative rho (up, down):  6.406E-03 1.749E-02
     atom    1 type  1   force =    -0.00063380   -0.00008245   -0.00083821
     atom    2 type  1   force =    -0.00053858   -0.00004706   -0.00083163
     atom    3 type  1   force =    -0.00027879    0.00009536   -0.00074668
     atom    4 type  1   force =    -0.00124684    0.00040067   -0.00060641
     atom    5 type  1   force =    -0.00179940   -0.00008163   -0.00021599
     atom    6 type  1   force =    -0.00128349   -0.00031302   -0.00058454
     atom    7 type  1   force =    -0.00027955   -0.00087971   -0.00054614
     atom    8 type  1   force =    -0.00033823    0.00073146   -0.00049070
     atom    9 type  1   force =    -0.00088416    0.00008074    0.00052454
     atom   10 type  1   force =    -0.00062276   -0.00024121    0.00079171
     atom   11 type  1   force =    -0.00157056   -0.00007248   -0.00067686
     atom   12 type  1   force =    -0.00061618    0.00032396    0.00072388
     atom   13 type  1   force =    -0.00076161   -0.00014683    0.00037693
     atom   14 type  1   force =    -0.00075830    0.00008022    0.00030008
     atom   15 type  1   force =    -0.00080203    0.00006659    0.00008147
     atom   16 type  1   force =    -0.00015051   -0.00014997   -0.00035380
     atom   17 type  1   force =    -0.00063461   -0.00004506   -0.00052708
     atom   18 type  1   force =    -0.00015526    0.00019368   -0.00042078
     atom   19 type  1   force =     0.00466713    0.00085856   -0.00482074
     atom   20 type  1   force =     0.00465651   -0.00085126   -0.00487325
     atom   21 type  1   force =     0.00415538   -0.00000779   -0.00808932
     atom   22 type  1   force =    -0.00012071    0.00086930   -0.00860560
     atom   23 type  1   force =     0.00092752    0.00001682   -0.00793414
     atom   24 type  1   force =    -0.00012248   -0.00089221   -0.00864389
     atom   25 type  1   force =     0.00334007   -0.00001318   -0.01610692
     atom   26 type  1   force =     0.00334754    0.00004341   -0.01613843
     atom   27 type  1   force =     0.00308872   -0.00002857   -0.01538672
     atom   28 type  1   force =     0.00152697    0.00064613   -0.00936664
     atom   29 type  1   force =     0.00166724    0.00002271   -0.00911473
     atom   30 type  1   force =     0.00153044   -0.00066979   -0.00937675
     atom   31 type  1   force =    -0.00773156   -0.00040399    0.01284969
     atom   32 type  1   force =    -0.00774500    0.00043337    0.01284577
     atom   33 type  1   force =    -0.00813729   -0.00003186    0.01313784
     atom   34 type  1   force =     0.00337085    0.00028392    0.02733567
     atom   35 type  1   force =     0.00314287    0.00003382    0.02812393
     atom   36 type  1   force =     0.00337068   -0.00031556    0.02733162
     atom   37 type  2   force =    -0.00158019    0.00009292    0.00087284

     Total force =     0.066904     Total SCF correction =     0.000973
 !ASE

     Writing output data file calc.save
 
     init_run     :     41.77s CPU     48.61s WALL (       1 calls)
     electrons    :  40163.58s CPU  46759.30s WALL (      14 calls)
     update_pot   :     56.47s CPU     59.62s WALL (      13 calls)
     forces       :    704.05s CPU    733.57s WALL (      14 calls)

     Called by init_run:
     wfcinit      :     26.58s CPU     32.47s WALL (       1 calls)
     potinit      :      1.73s CPU      1.87s WALL (       1 calls)

     Called by electrons:
     c_bands      :  26962.58s CPU  31999.20s WALL (     439 calls)
     sum_band     :   8927.19s CPU  10133.24s WALL (     439 calls)
     v_of_rho     :    271.37s CPU    318.43s WALL (     453 calls)
     newd         :   4041.58s CPU   4335.78s WALL (     453 calls)
     mix_rho      :     63.57s CPU     77.16s WALL (     439 calls)

     Called by c_bands:
     init_us_2    :    113.30s CPU    124.21s WALL (    8930 calls)
     cegterg      :  26334.64s CPU  31342.60s WALL (    4390 calls)

     Called by *egterg:
     h_psi        :  13747.76s CPU  17678.95s WALL (   15430 calls)
     s_psi        :   1841.31s CPU   1912.11s WALL (   15430 calls)
     g_psi        :     66.51s CPU     68.54s WALL (   11030 calls)
     cdiaghg      :   3949.34s CPU   4051.60s WALL (   15290 calls)

     Called by h_psi:
     add_vuspsi   :   1863.59s CPU   1926.28s WALL (   15430 calls)

     General routines
     calbec       :   2859.09s CPU   2944.81s WALL (   19960 calls)
     fft          :    292.19s CPU    342.12s WALL (   14169 calls)
     ffts         :      3.56s CPU      4.87s WALL (    1784 calls)
     fftw         :   7350.85s CPU  11922.82s WALL ( 6243976 calls)
     interpolate  :     35.86s CPU     49.09s WALL (    1784 calls)
     davcio       :      0.02s CPU      0.67s WALL (      10 calls)
 
     Parallel routines
     fft_scatter  :   4341.75s CPU   7007.88s WALL ( 6259929 calls)
 
     PWSCF        :    11h24m CPU       13h15m WALL

 
   This run was terminated on:   2:41:40  21Apr2018            

=------------------------------------------------------------------------------=
   JOB DONE.
=------------------------------------------------------------------------------=
