  python dir          : /home/vossj/suncat/lib/python2.7/site-packages/espresso
  espresso dir        : /home/vossj/suncat/esdld/espresso-dynpy-beef/bin
  pseudo dir          : /home/alatimer/bin/psp/esp_psp_w_gbrvRu/
  ase-espresso py git : ffa2778-git



     Program PWSCF v.5.1rc2 (svn rev. ) starts on  5Mar2018 at 12:29:29 

     This program is part of the open-source Quantum ESPRESSO suite
     for quantum simulation of materials; please cite
         "P. Giannozzi et al., J. Phys.:Condens. Matter 21 395502 (2009);
          URL http://www.quantum-espresso.org", 
     in publications or presentations arising from this work. More details at
     http://www.quantum-espresso.org/quote

     Parallel version (MPI), running on    16 processors
     R & G space division:  proc/nbgrp/npool/nimage =      16
     Reading input from pw.inp
     Message from routine read_cards :
     DEPRECATED: no units specified in CELL_PARAMETERS card

     Current dimensions of program PWSCF are:
     Max number of different atomic species (ntypx) = 10
     Max number of k-points (npk) =  40000
     Max angular momentum in pseudopotentials (lmaxx) =  3
     Presently no symmetry can be used with electric field


     IMPORTANT: XC functional enforced from input :
     Exchange-correlation      = RPBE ( 1  4 28  4 0)
     Any further DFT definition will be discarded
     Please, verify this is what you really want

               file Ni.UPF: wavefunction(s)  3D renormalized

     Subspace diagonalization in iterative solution of the eigenvalue problem:
     a serial algorithm will be used

 
     Parallelization info
     --------------------
     sticks:   dense  smooth     PW     G-vecs:    dense   smooth      PW
     Min         630     252     68                99782    25206    3526
     Max         631     253     69                99791    25249    3527
     Sum       10093    4041   1091              1596589   403729   56419
 
     Generating pointlists ...
     new r_m :   0.4125 (alat units)  0.7795 (a.u.) for type    1
     new r_m :   0.4125 (alat units)  0.7795 (a.u.) for type    2


     bravais-lattice index     =            0
     lattice parameter (alat)  =       1.8897  a.u.
     unit-cell volume          =   10207.8337 (a.u.)^3
     number of atoms/cell      =           37
     number of atomic types    =            2
     number of electrons       =       366.00
     number of Kohn-Sham states=          283
     kinetic-energy cutoff     =      44.0992  Ry
     charge density cutoff     =     440.9919  Ry
     convergence threshold     =      7.3E-07
     mixing beta               =       0.1000
     number of iterations used =           10  plain     mixing
     Exchange-correlation      = RPBE ( 1  4 28  4 0)
     nstep                     =           50


     celldm(1)=   1.889726  celldm(2)=   0.000000  celldm(3)=   0.000000
     celldm(4)=   0.000000  celldm(5)=   0.000000  celldm(6)=   0.000000

     crystal axes: (cart. coord. in units of alat)
               a(1) = (  13.073539   0.000000   0.000000 )  
               a(2) = (  -4.357846   6.162925   0.000000 )  
               a(3) = (   0.000000   0.000000  18.774005 )  

     reciprocal axes: (cart. coord. in units 2 pi/alat)
               b(1) = (  0.076490  0.054087  0.000000 )  
               b(2) = (  0.000000  0.162261  0.000000 )  
               b(3) = (  0.000000  0.000000  0.053265 )  


     PseudoPot. # 1 for Ni read from file:
     /home/alatimer/bin/psp/esp_psp_w_gbrvRu/Ni.UPF
     MD5 check sum: 8b2449ee0060d9c33484ccd47bb60870
     Pseudo is Ultrasoft + core correction, Zval = 10.0
     Generated using "atomic" code by A. Dal Corso  v.5.0.2 svn rev. 9415
     Using radial grid of 1195 points,  6 beta functions with: 
                l(1) =   0
                l(2) =   0
                l(3) =   1
                l(4) =   1
                l(5) =   2
                l(6) =   2
     Q(r) pseudized with 0 coefficients 


     PseudoPot. # 2 for  O read from file:
     /home/alatimer/bin/psp/esp_psp_w_gbrvRu/O.UPF
     MD5 check sum: e057bbcf3229fb5d8c36c0c92f9568b4
     Pseudo is Ultrasoft + core correction, Zval =  6.0
     Generated using "atomic" code by A. Dal Corso  v.5.0.2 svn rev. 9415
     Using radial grid of 1095 points,  4 beta functions with: 
                l(1) =   0
                l(2) =   0
                l(3) =   1
                l(4) =   1
     Q(r) pseudized with 0 coefficients 


     atomic species   valence    mass     pseudopotential
        Ni1           10.00    58.69340     Ni( 1.00)
        O1             6.00    15.99940      O( 1.00)

     Starting magnetic structure 
     atomic species   magnetization
        Ni1          0.300
        O1           0.500

     No symmetry found



   Cartesian axes

     site n.     atom                  positions (alat units)
         1           Ni1 tau(   1) = (   0.0000000   0.0000000   7.5000000  )
         2           Ni1 tau(   2) = (   2.1789231   0.0000000   8.7580018  )
         3           Ni1 tau(   3) = (   0.0000000   0.0000000  10.0160037  )
         4           Ni1 tau(   4) = (   2.1789231   0.0000000  11.2740055  )
         5           Ni1 tau(   5) = (  -1.4526154   2.0543084   7.5000000  )
         6           Ni1 tau(   6) = (   0.7263077   2.0543084   8.7580018  )
         7           Ni1 tau(   7) = (  -1.4526154   2.0543084  10.0160037  )
         8           Ni1 tau(   8) = (   0.7263077   2.0543084  11.2740055  )
         9           Ni1 tau(   9) = (  -2.9052308   4.1086168   7.5000000  )
        10           Ni1 tau(  10) = (  -0.7263077   4.1086168   8.7580018  )
        11           Ni1 tau(  11) = (  -2.9052308   4.1086168  10.0160037  )
        12           Ni1 tau(  12) = (  -0.7263077   4.1086168  11.2740055  )
        13           Ni1 tau(  13) = (   4.3578462   0.0000000   7.5000000  )
        14           Ni1 tau(  14) = (   6.5367693   0.0000000   8.7580018  )
        15           Ni1 tau(  15) = (   4.3578462   0.0000000  10.0160037  )
        16           Ni1 tau(  16) = (   6.5367693   0.0000000  11.2740055  )
        17           Ni1 tau(  17) = (   2.9052308   2.0543084   7.5000000  )
        18           Ni1 tau(  18) = (   5.0841539   2.0543084   8.7580018  )
        19           Ni1 tau(  19) = (   2.9052308   2.0543084  10.0160037  )
        20           Ni1 tau(  20) = (   5.0841539   2.0543084  11.2740055  )
        21           Ni1 tau(  21) = (   1.4526154   4.1086168   7.5000000  )
        22           Ni1 tau(  22) = (   3.6315385   4.1086168   8.7580018  )
        23           Ni1 tau(  23) = (   1.4526154   4.1086168  10.0160037  )
        24           Ni1 tau(  24) = (   3.6315385   4.1086168  11.2740055  )
        25           Ni1 tau(  25) = (   8.7156924   0.0000000   7.5000000  )
        26           Ni1 tau(  26) = (  10.8946154   0.0000000   8.7580018  )
        27           Ni1 tau(  27) = (   8.7156924   0.0000000  10.0160037  )
        28           Ni1 tau(  28) = (  10.8946154   0.0000000  11.2740055  )
        29           Ni1 tau(  29) = (   7.2630770   2.0543084   7.5000000  )
        30           Ni1 tau(  30) = (   9.4420001   2.0543084   8.7580018  )
        31           Ni1 tau(  31) = (   7.2630770   2.0543084  10.0160037  )
        32           Ni1 tau(  32) = (   9.4420001   2.0543084  11.2740055  )
        33           Ni1 tau(  33) = (   5.8104616   4.1086168   7.5000000  )
        34           Ni1 tau(  34) = (   7.9893847   4.1086168   8.7580018  )
        35           Ni1 tau(  35) = (   5.8104616   4.1086168  10.0160037  )
        36           Ni1 tau(  36) = (   7.9893847   4.1086168  11.2740055  )
        37           O1  tau(  37) = (   2.9468202   2.0595393  12.8545716  )

     number of k points=    10  Fermi-Dirac smearing, width (Ry)=  0.0073
                       cart. coord. in units 2pi/alat
        k(    1) = (   0.0000000   0.0000000   0.0000000), wk =   0.1111111
        k(    2) = (   0.0000000   0.0540869   0.0000000), wk =   0.2222222
        k(    3) = (   0.0254968   0.0180290   0.0000000), wk =   0.2222222
        k(    4) = (   0.0254968   0.0721158   0.0000000), wk =   0.2222222
        k(    5) = (   0.0254968  -0.0360579   0.0000000), wk =   0.2222222
        k(    6) = (   0.0000000   0.0000000   0.0000000), wk =   0.1111111
        k(    7) = (   0.0000000   0.0540869   0.0000000), wk =   0.2222222
        k(    8) = (   0.0254968   0.0180290   0.0000000), wk =   0.2222222
        k(    9) = (   0.0254968   0.0721158   0.0000000), wk =   0.2222222
        k(   10) = (   0.0254968  -0.0360579   0.0000000), wk =   0.2222222

     Dense  grid:  1596589 G-vectors     FFT dimensions: ( 180,  96, 240)

     Smooth grid:   403729 G-vectors     FFT dimensions: ( 108,  64, 150)

     Largest allocated arrays     est. size (Mb)     dimensions
        Kohn-Sham Wavefunctions        13.74 Mb     (    3181,  283)
        NL pseudopotentials            31.84 Mb     (    3181,  656)
        Each V/rho on FFT grid          7.91 Mb     (  259200,   2)
        Each G-vector array             0.76 Mb     (   99791)
        G-vector shells                 0.33 Mb     (   42988)
     Largest temporary arrays     est. size (Mb)     dimensions
        Auxiliary wavefunctions        54.95 Mb     (    3181, 1132)
        Each subspace H/S matrix       19.55 Mb     (    1132, 1132)
        Each <psi_i|beta_j> matrix      2.83 Mb     (     656,  283)
        Arrays for rho mixing          39.55 Mb     (  259200,   10)

     Check: negative/imaginary core charge=   -0.000003    0.000000

     Initial potential from superposition of free atoms
     Check: negative starting charge=(component1):   -0.000542
     Check: negative starting charge=(component2):   -0.000285

     starting charge  365.99096, renormalised to  366.00000

     negative rho (up, down):  5.416E-04 2.847E-04
 
     Adding external electric field

     Computed dipole along edir(3) : 
        Dipole               -0.0010 Ry au,         -0.0024 Debye
        Dipole field         -0.0000 Ry au
 
        Potential amp.        0.0001 Ry
        Total length         34.5908 bohr
 
 
     Adding external electric field

     Computed dipole along edir(3) : 
        Dipole               -0.0010 Ry au,         -0.0024 Debye
        Dipole field         -0.0000 Ry au
 
        Potential amp.        0.0001 Ry
        Total length         34.5908 bohr
 
     Starting wfc are  328 randomized atomic wfcs

     total cpu time spent up to now is       52.7 secs

     Self-consistent Calculation

     iteration #  1     ecut=    44.10 Ry     beta=0.10
     Davidson diagonalization with overlap
     ethr =  1.00E-02,  avg # of iterations =  7.2

     negative rho (up, down):  5.035E-04 2.618E-04
 
     Adding external electric field

     Computed dipole along edir(3) : 
        Dipole                0.4506 Ry au,          1.1453 Debye
        Dipole field          0.0006 Ry au
 
        Potential amp.       -0.0384 Ry
        Total length         34.5908 bohr
 
 
     Adding external electric field

     Computed dipole along edir(3) : 
        Dipole                0.4506 Ry au,          1.1453 Debye
        Dipole field          0.0006 Ry au
 
        Potential amp.       -0.0384 Ry
        Total length         34.5908 bohr
 
 
     Magnetic moment per site:
     atom:    1    charge:    3.9576    magn:    1.1235    constr:    0.0000
     atom:    2    charge:    3.9773    magn:    1.1063    constr:    0.0000
     atom:    3    charge:    3.9776    magn:    1.1062    constr:    0.0000
     atom:    4    charge:    3.9578    magn:    1.1236    constr:    0.0000
     atom:    5    charge:    3.9575    magn:    1.1235    constr:    0.0000
     atom:    6    charge:    3.9773    magn:    1.1063    constr:    0.0000
     atom:    7    charge:    3.9778    magn:    1.1059    constr:    0.0000
     atom:    8    charge:    3.9577    magn:    1.1237    constr:    0.0000
     atom:    9    charge:    3.9576    magn:    1.1235    constr:    0.0000
     atom:   10    charge:    3.9774    magn:    1.1064    constr:    0.0000
     atom:   11    charge:    3.9779    magn:    1.1059    constr:    0.0000
     atom:   12    charge:    3.9574    magn:    1.1237    constr:    0.0000
     atom:   13    charge:    3.9578    magn:    1.1235    constr:    0.0000
     atom:   14    charge:    3.9774    magn:    1.1064    constr:    0.0000
     atom:   15    charge:    3.9773    magn:    1.1064    constr:    0.0000
     atom:   16    charge:    3.9574    magn:    1.1237    constr:    0.0000
     atom:   17    charge:    3.9576    magn:    1.1240    constr:    0.0000
     atom:   18    charge:    3.9773    magn:    1.1063    constr:    0.0000
     atom:   19    charge:    3.9761    magn:    1.1088    constr:    0.0000
     atom:   20    charge:    3.9578    magn:    1.1236    constr:    0.0000
     atom:   21    charge:    3.9577    magn:    1.1235    constr:    0.0000
     atom:   22    charge:    3.9773    magn:    1.1063    constr:    0.0000
     atom:   23    charge:    3.9773    magn:    1.1064    constr:    0.0000
     atom:   24    charge:    3.9578    magn:    1.1236    constr:    0.0000
     atom:   25    charge:    3.9575    magn:    1.1235    constr:    0.0000
     atom:   26    charge:    3.9774    magn:    1.1062    constr:    0.0000
     atom:   27    charge:    3.9779    magn:    1.1058    constr:    0.0000
     atom:   28    charge:    3.9575    magn:    1.1235    constr:    0.0000
     atom:   29    charge:    3.9576    magn:    1.1235    constr:    0.0000
     atom:   30    charge:    3.9774    magn:    1.1062    constr:    0.0000
     atom:   31    charge:    3.9779    magn:    1.1058    constr:    0.0000
     atom:   32    charge:    3.9576    magn:    1.1234    constr:    0.0000
     atom:   33    charge:    3.9576    magn:    1.1235    constr:    0.0000
     atom:   34    charge:    3.9774    magn:    1.1062    constr:    0.0000
     atom:   35    charge:    3.9776    magn:    1.1062    constr:    0.0000
     atom:   36    charge:    3.9575    magn:    1.1235    constr:    0.0000
     atom:   37    charge:    1.9577    magn:    0.9807    constr:    0.0000

     total cpu time spent up to now is      229.9 secs

     total energy              =   -3653.39098893 Ry
     Harris-Foulkes estimate   =   -3654.81595573 Ry
     estimated scf accuracy    <      13.27340283 Ry

     total magnetization       =    35.93 Bohr mag/cell
     absolute magnetization    =    35.96 Bohr mag/cell

     iteration #  2     ecut=    44.10 Ry     beta=0.10
     Davidson diagonalization with overlap
     ethr =  3.63E-03,  avg # of iterations =  1.4

     negative rho (up, down):  4.977E-04 2.801E-04
 
     Adding external electric field

     Computed dipole along edir(3) : 
        Dipole               -0.5546 Ry au,         -1.4096 Debye
        Dipole field         -0.0007 Ry au
 
        Potential amp.        0.0472 Ry
        Total length         34.5908 bohr
 
 
     Adding external electric field

     Computed dipole along edir(3) : 
        Dipole               -0.5546 Ry au,         -1.4096 Debye
        Dipole field         -0.0007 Ry au
 
        Potential amp.        0.0472 Ry
        Total length         34.5908 bohr
 
 
     Magnetic moment per site:
     atom:    1    charge:    3.9725    magn:    1.0923    constr:    0.0000
     atom:    2    charge:    3.9625    magn:    1.0951    constr:    0.0000
     atom:    3    charge:    3.9656    magn:    1.0922    constr:    0.0000
     atom:    4    charge:    3.9789    magn:    1.0869    constr:    0.0000
     atom:    5    charge:    3.9724    magn:    1.0923    constr:    0.0000
     atom:    6    charge:    3.9625    magn:    1.0950    constr:    0.0000
     atom:    7    charge:    3.9649    magn:    1.0929    constr:    0.0000
     atom:    8    charge:    3.9789    magn:    1.0869    constr:    0.0000
     atom:    9    charge:    3.9724    magn:    1.0923    constr:    0.0000
     atom:   10    charge:    3.9619    magn:    1.0959    constr:    0.0000
     atom:   11    charge:    3.9648    magn:    1.0929    constr:    0.0000
     atom:   12    charge:    3.9781    magn:    1.0872    constr:    0.0000
     atom:   13    charge:    3.9732    magn:    1.0916    constr:    0.0000
     atom:   14    charge:    3.9619    magn:    1.0959    constr:    0.0000
     atom:   15    charge:    3.9688    magn:    1.0892    constr:    0.0000
     atom:   16    charge:    3.9781    magn:    1.0872    constr:    0.0000
     atom:   17    charge:    3.9728    magn:    1.0925    constr:    0.0000
     atom:   18    charge:    3.9625    magn:    1.0951    constr:    0.0000
     atom:   19    charge:    3.9699    magn:    1.0905    constr:    0.0000
     atom:   20    charge:    3.9789    magn:    1.0870    constr:    0.0000
     atom:   21    charge:    3.9732    magn:    1.0916    constr:    0.0000
     atom:   22    charge:    3.9625    magn:    1.0951    constr:    0.0000
     atom:   23    charge:    3.9688    magn:    1.0892    constr:    0.0000
     atom:   24    charge:    3.9789    magn:    1.0870    constr:    0.0000
     atom:   25    charge:    3.9724    magn:    1.0923    constr:    0.0000
     atom:   26    charge:    3.9605    magn:    1.0970    constr:    0.0000
     atom:   27    charge:    3.9648    magn:    1.0929    constr:    0.0000
     atom:   28    charge:    3.9766    magn:    1.0885    constr:    0.0000
     atom:   29    charge:    3.9723    magn:    1.0923    constr:    0.0000
     atom:   30    charge:    3.9608    magn:    1.0967    constr:    0.0000
     atom:   31    charge:    3.9647    magn:    1.0929    constr:    0.0000
     atom:   32    charge:    3.9765    magn:    1.0886    constr:    0.0000
     atom:   33    charge:    3.9724    magn:    1.0923    constr:    0.0000
     atom:   34    charge:    3.9605    magn:    1.0971    constr:    0.0000
     atom:   35    charge:    3.9655    magn:    1.0923    constr:    0.0000
     atom:   36    charge:    3.9766    magn:    1.0885    constr:    0.0000
     atom:   37    charge:    1.9810    magn:    0.9500    constr:    0.0000

     total cpu time spent up to now is      340.9 secs

     total energy              =   -3653.63350832 Ry
     Harris-Foulkes estimate   =   -3654.80946748 Ry
     estimated scf accuracy    <      19.45855664 Ry

     total magnetization       =    38.34 Bohr mag/cell
     absolute magnetization    =    38.69 Bohr mag/cell

     iteration #  3     ecut=    44.10 Ry     beta=0.10
     Davidson diagonalization with overlap
     ethr =  3.63E-03,  avg # of iterations =  1.0

     negative rho (up, down):  4.955E-04 3.162E-04
 
     Adding external electric field

     Computed dipole along edir(3) : 
        Dipole                0.4024 Ry au,          1.0228 Debye
        Dipole field          0.0005 Ry au
 
        Potential amp.       -0.0343 Ry
        Total length         34.5908 bohr
 
 
     Adding external electric field

     Computed dipole along edir(3) : 
        Dipole                0.4024 Ry au,          1.0228 Debye
        Dipole field          0.0005 Ry au
 
        Potential amp.       -0.0343 Ry
        Total length         34.5908 bohr
 
 
     Magnetic moment per site:
     atom:    1    charge:    3.9841    magn:    1.0678    constr:    0.0000
     atom:    2    charge:    3.9640    magn:    1.0775    constr:    0.0000
     atom:    3    charge:    3.9638    magn:    1.0776    constr:    0.0000
     atom:    4    charge:    3.9727    magn:    1.0787    constr:    0.0000
     atom:    5    charge:    3.9842    magn:    1.0677    constr:    0.0000
     atom:    6    charge:    3.9640    magn:    1.0775    constr:    0.0000
     atom:    7    charge:    3.9635    magn:    1.0778    constr:    0.0000
     atom:    8    charge:    3.9728    magn:    1.0787    constr:    0.0000
     atom:    9    charge:    3.9842    magn:    1.0677    constr:    0.0000
     atom:   10    charge:    3.9638    magn:    1.0781    constr:    0.0000
     atom:   11    charge:    3.9635    magn:    1.0778    constr:    0.0000
     atom:   12    charge:    3.9731    magn:    1.0779    constr:    0.0000
     atom:   13    charge:    3.9833    magn:    1.0685    constr:    0.0000
     atom:   14    charge:    3.9638    magn:    1.0781    constr:    0.0000
     atom:   15    charge:    3.9638    magn:    1.0772    constr:    0.0000
     atom:   16    charge:    3.9731    magn:    1.0779    constr:    0.0000
     atom:   17    charge:    3.9827    magn:    1.0698    constr:    0.0000
     atom:   18    charge:    3.9640    magn:    1.0775    constr:    0.0000
     atom:   19    charge:    3.9638    magn:    1.0799    constr:    0.0000
     atom:   20    charge:    3.9727    magn:    1.0788    constr:    0.0000
     atom:   21    charge:    3.9833    magn:    1.0685    constr:    0.0000
     atom:   22    charge:    3.9640    magn:    1.0775    constr:    0.0000
     atom:   23    charge:    3.9637    magn:    1.0772    constr:    0.0000
     atom:   24    charge:    3.9727    magn:    1.0788    constr:    0.0000
     atom:   25    charge:    3.9842    magn:    1.0677    constr:    0.0000
     atom:   26    charge:    3.9640    magn:    1.0778    constr:    0.0000
     atom:   27    charge:    3.9635    magn:    1.0778    constr:    0.0000
     atom:   28    charge:    3.9761    magn:    1.0751    constr:    0.0000
     atom:   29    charge:    3.9842    magn:    1.0677    constr:    0.0000
     atom:   30    charge:    3.9646    magn:    1.0772    constr:    0.0000
     atom:   31    charge:    3.9635    magn:    1.0778    constr:    0.0000
     atom:   32    charge:    3.9763    magn:    1.0749    constr:    0.0000
     atom:   33    charge:    3.9841    magn:    1.0678    constr:    0.0000
     atom:   34    charge:    3.9640    magn:    1.0778    constr:    0.0000
     atom:   35    charge:    3.9637    magn:    1.0777    constr:    0.0000
     atom:   36    charge:    3.9761    magn:    1.0751    constr:    0.0000
     atom:   37    charge:    1.9909    magn:    0.9331    constr:    0.0000

     total cpu time spent up to now is      450.4 secs

     total energy              =   -3653.76158199 Ry
     Harris-Foulkes estimate   =   -3654.57796549 Ry
     estimated scf accuracy    <      28.16162019 Ry

     total magnetization       =    38.19 Bohr mag/cell
     absolute magnetization    =    38.41 Bohr mag/cell

     iteration #  4     ecut=    44.10 Ry     beta=0.10
     Davidson diagonalization with overlap
     ethr =  3.63E-03,  avg # of iterations =  1.2

     negative rho (up, down):  4.914E-04 3.108E-04
 
     Adding external electric field

     Computed dipole along edir(3) : 
        Dipole               -0.5657 Ry au,         -1.4378 Debye
        Dipole field         -0.0007 Ry au
 
        Potential amp.        0.0482 Ry
        Total length         34.5908 bohr
 
 
     Adding external electric field

     Computed dipole along edir(3) : 
        Dipole               -0.5657 Ry au,         -1.4378 Debye
        Dipole field         -0.0007 Ry au
 
        Potential amp.        0.0482 Ry
        Total length         34.5908 bohr
 
 
     Magnetic moment per site:
     atom:    1    charge:    3.9849    magn:    1.0224    constr:    0.0000
     atom:    2    charge:    3.9701    magn:    1.0224    constr:    0.0000
     atom:    3    charge:    3.9696    magn:    1.0225    constr:    0.0000
     atom:    4    charge:    3.9758    magn:    1.0323    constr:    0.0000
     atom:    5    charge:    3.9852    magn:    1.0221    constr:    0.0000
     atom:    6    charge:    3.9701    magn:    1.0224    constr:    0.0000
     atom:    7    charge:    3.9705    magn:    1.0218    constr:    0.0000
     atom:    8    charge:    3.9759    magn:    1.0322    constr:    0.0000
     atom:    9    charge:    3.9852    magn:    1.0221    constr:    0.0000
     atom:   10    charge:    3.9710    magn:    1.0223    constr:    0.0000
     atom:   11    charge:    3.9705    magn:    1.0218    constr:    0.0000
     atom:   12    charge:    3.9797    magn:    1.0280    constr:    0.0000
     atom:   13    charge:    3.9843    magn:    1.0229    constr:    0.0000
     atom:   14    charge:    3.9711    magn:    1.0223    constr:    0.0000
     atom:   15    charge:    3.9649    magn:    1.0255    constr:    0.0000
     atom:   16    charge:    3.9797    magn:    1.0280    constr:    0.0000
     atom:   17    charge:    3.9843    magn:    1.0242    constr:    0.0000
     atom:   18    charge:    3.9702    magn:    1.0223    constr:    0.0000
     atom:   19    charge:    3.9621    magn:    1.0323    constr:    0.0000
     atom:   20    charge:    3.9754    magn:    1.0328    constr:    0.0000
     atom:   21    charge:    3.9843    magn:    1.0229    constr:    0.0000
     atom:   22    charge:    3.9702    magn:    1.0223    constr:    0.0000
     atom:   23    charge:    3.9649    magn:    1.0255    constr:    0.0000
     atom:   24    charge:    3.9755    magn:    1.0327    constr:    0.0000
     atom:   25    charge:    3.9853    magn:    1.0220    constr:    0.0000
     atom:   26    charge:    3.9731    magn:    1.0206    constr:    0.0000
     atom:   27    charge:    3.9706    magn:    1.0217    constr:    0.0000
     atom:   28    charge:    3.9875    magn:    1.0204    constr:    0.0000
     atom:   29    charge:    3.9853    magn:    1.0220    constr:    0.0000
     atom:   30    charge:    3.9739    magn:    1.0196    constr:    0.0000
     atom:   31    charge:    3.9706    magn:    1.0217    constr:    0.0000
     atom:   32    charge:    3.9882    magn:    1.0198    constr:    0.0000
     atom:   33    charge:    3.9849    magn:    1.0224    constr:    0.0000
     atom:   34    charge:    3.9731    magn:    1.0206    constr:    0.0000
     atom:   35    charge:    3.9696    magn:    1.0225    constr:    0.0000
     atom:   36    charge:    3.9875    magn:    1.0204    constr:    0.0000
     atom:   37    charge:    2.0211    magn:    0.8795    constr:    0.0000

     total cpu time spent up to now is      560.2 secs

     total energy              =   -3654.04037688 Ry
     Harris-Foulkes estimate   =   -3654.62706229 Ry
     estimated scf accuracy    <      33.02512827 Ry

     total magnetization       =    38.28 Bohr mag/cell
     absolute magnetization    =    38.62 Bohr mag/cell

     iteration #  5     ecut=    44.10 Ry     beta=0.10
     Davidson diagonalization with overlap
     ethr =  3.63E-03,  avg # of iterations =  1.7

     negative rho (up, down):  4.883E-04 3.198E-04
 
     Adding external electric field

     Computed dipole along edir(3) : 
        Dipole               -0.4865 Ry au,         -1.2365 Debye
        Dipole field         -0.0006 Ry au
 
        Potential amp.        0.0414 Ry
        Total length         34.5908 bohr
 
 
     Adding external electric field

     Computed dipole along edir(3) : 
        Dipole               -0.4865 Ry au,         -1.2365 Debye
        Dipole field         -0.0006 Ry au
 
        Potential amp.        0.0414 Ry
        Total length         34.5908 bohr
 
 
     Magnetic moment per site:
     atom:    1    charge:    3.9884    magn:    0.9885    constr:    0.0000
     atom:    2    charge:    3.9741    magn:    0.9850    constr:    0.0000
     atom:    3    charge:    3.9677    magn:    0.9907    constr:    0.0000
     atom:    4    charge:    3.9836    magn:    0.9957    constr:    0.0000
     atom:    5    charge:    3.9882    magn:    0.9886    constr:    0.0000
     atom:    6    charge:    3.9741    magn:    0.9850    constr:    0.0000
     atom:    7    charge:    3.9681    magn:    0.9903    constr:    0.0000
     atom:    8    charge:    3.9838    magn:    0.9955    constr:    0.0000
     atom:    9    charge:    3.9882    magn:    0.9886    constr:    0.0000
     atom:   10    charge:    3.9745    magn:    0.9856    constr:    0.0000
     atom:   11    charge:    3.9681    magn:    0.9903    constr:    0.0000
     atom:   12    charge:    3.9883    magn:    0.9900    constr:    0.0000
     atom:   13    charge:    3.9926    magn:    0.9844    constr:    0.0000
     atom:   14    charge:    3.9744    magn:    0.9857    constr:    0.0000
     atom:   15    charge:    3.9714    magn:    0.9863    constr:    0.0000
     atom:   16    charge:    3.9881    magn:    0.9902    constr:    0.0000
     atom:   17    charge:    3.9929    magn:    0.9857    constr:    0.0000
     atom:   18    charge:    3.9740    magn:    0.9851    constr:    0.0000
     atom:   19    charge:    3.9680    magn:    0.9951    constr:    0.0000
     atom:   20    charge:    3.9830    magn:    0.9965    constr:    0.0000
     atom:   21    charge:    3.9926    magn:    0.9844    constr:    0.0000
     atom:   22    charge:    3.9740    magn:    0.9851    constr:    0.0000
     atom:   23    charge:    3.9715    magn:    0.9863    constr:    0.0000
     atom:   24    charge:    3.9832    magn:    0.9963    constr:    0.0000
     atom:   25    charge:    3.9881    magn:    0.9887    constr:    0.0000
     atom:   26    charge:    3.9690    magn:    0.9905    constr:    0.0000
     atom:   27    charge:    3.9680    magn:    0.9904    constr:    0.0000
     atom:   28    charge:    3.9806    magn:    0.9960    constr:    0.0000
     atom:   29    charge:    3.9881    magn:    0.9887    constr:    0.0000
     atom:   30    charge:    3.9685    magn:    0.9904    constr:    0.0000
     atom:   31    charge:    3.9680    magn:    0.9903    constr:    0.0000
     atom:   32    charge:    3.9803    magn:    0.9961    constr:    0.0000
     atom:   33    charge:    3.9883    magn:    0.9886    constr:    0.0000
     atom:   34    charge:    3.9690    magn:    0.9905    constr:    0.0000
     atom:   35    charge:    3.9676    magn:    0.9908    constr:    0.0000
     atom:   36    charge:    3.9806    magn:    0.9960    constr:    0.0000
     atom:   37    charge:    2.0280    magn:    0.8520    constr:    0.0000

     total cpu time spent up to now is      672.4 secs

     total energy              =   -3654.35177477 Ry
     Harris-Foulkes estimate   =   -3654.55651632 Ry
     estimated scf accuracy    <       8.15191987 Ry

     total magnetization       =    38.36 Bohr mag/cell
     absolute magnetization    =    38.66 Bohr mag/cell

     iteration #  6     ecut=    44.10 Ry     beta=0.10
     Davidson diagonalization with overlap
     ethr =  2.23E-03,  avg # of iterations =  1.9

     negative rho (up, down):  4.817E-04 3.005E-04
 
     Adding external electric field

     Computed dipole along edir(3) : 
        Dipole               -0.5496 Ry au,         -1.3970 Debye
        Dipole field         -0.0007 Ry au
 
        Potential amp.        0.0468 Ry
        Total length         34.5908 bohr
 
 
     Adding external electric field

     Computed dipole along edir(3) : 
        Dipole               -0.5496 Ry au,         -1.3970 Debye
        Dipole field         -0.0007 Ry au
 
        Potential amp.        0.0468 Ry
        Total length         34.5908 bohr
 
 
     Magnetic moment per site:
     atom:    1    charge:    3.9991    magn:    0.9188    constr:    0.0000
     atom:    2    charge:    3.9684    magn:    0.9248    constr:    0.0000
     atom:    3    charge:    3.9706    magn:    0.9243    constr:    0.0000
     atom:    4    charge:    3.9920    magn:    0.9308    constr:    0.0000
     atom:    5    charge:    3.9986    magn:    0.9192    constr:    0.0000
     atom:    6    charge:    3.9684    magn:    0.9248    constr:    0.0000
     atom:    7    charge:    3.9705    magn:    0.9242    constr:    0.0000
     atom:    8    charge:    3.9923    magn:    0.9306    constr:    0.0000
     atom:    9    charge:    3.9986    magn:    0.9192    constr:    0.0000
     atom:   10    charge:    3.9677    magn:    0.9266    constr:    0.0000
     atom:   11    charge:    3.9705    magn:    0.9242    constr:    0.0000
     atom:   12    charge:    3.9963    magn:    0.9239    constr:    0.0000
     atom:   13    charge:    3.9926    magn:    0.9241    constr:    0.0000
     atom:   14    charge:    3.9677    magn:    0.9265    constr:    0.0000
     atom:   15    charge:    3.9677    magn:    0.9256    constr:    0.0000
     atom:   16    charge:    3.9964    magn:    0.9240    constr:    0.0000
     atom:   17    charge:    3.9927    magn:    0.9261    constr:    0.0000
     atom:   18    charge:    3.9685    magn:    0.9246    constr:    0.0000
     atom:   19    charge:    3.9662    magn:    0.9359    constr:    0.0000
     atom:   20    charge:    3.9916    magn:    0.9315    constr:    0.0000
     atom:   21    charge:    3.9926    magn:    0.9240    constr:    0.0000
     atom:   22    charge:    3.9685    magn:    0.9246    constr:    0.0000
     atom:   23    charge:    3.9677    magn:    0.9255    constr:    0.0000
     atom:   24    charge:    3.9919    magn:    0.9313    constr:    0.0000
     atom:   25    charge:    3.9986    magn:    0.9192    constr:    0.0000
     atom:   26    charge:    3.9709    magn:    0.9243    constr:    0.0000
     atom:   27    charge:    3.9704    magn:    0.9242    constr:    0.0000
     atom:   28    charge:    3.9895    magn:    0.9293    constr:    0.0000
     atom:   29    charge:    3.9985    magn:    0.9192    constr:    0.0000
     atom:   30    charge:    3.9695    magn:    0.9248    constr:    0.0000
     atom:   31    charge:    3.9704    magn:    0.9242    constr:    0.0000
     atom:   32    charge:    3.9882    magn:    0.9304    constr:    0.0000
     atom:   33    charge:    3.9991    magn:    0.9189    constr:    0.0000
     atom:   34    charge:    3.9709    magn:    0.9243    constr:    0.0000
     atom:   35    charge:    3.9706    magn:    0.9245    constr:    0.0000
     atom:   36    charge:    3.9894    magn:    0.9293    constr:    0.0000
     atom:   37    charge:    2.0310    magn:    0.8053    constr:    0.0000

     total cpu time spent up to now is      785.8 secs

     total energy              =   -3654.66247967 Ry
     Harris-Foulkes estimate   =   -3654.73007225 Ry
     estimated scf accuracy    <      11.13085049 Ry

     total magnetization       =    38.45 Bohr mag/cell
     absolute magnetization    =    38.82 Bohr mag/cell

     iteration #  7     ecut=    44.10 Ry     beta=0.10
     Davidson diagonalization with overlap
     ethr =  2.23E-03,  avg # of iterations =  2.0

     negative rho (up, down):  4.774E-04 3.111E-04
 
     Adding external electric field

     Computed dipole along edir(3) : 
        Dipole               -0.5316 Ry au,         -1.3511 Debye
        Dipole field         -0.0007 Ry au
 
        Potential amp.        0.0453 Ry
        Total length         34.5908 bohr
 
 
     Adding external electric field

     Computed dipole along edir(3) : 
        Dipole               -0.5316 Ry au,         -1.3511 Debye
        Dipole field         -0.0007 Ry au
 
        Potential amp.        0.0453 Ry
        Total length         34.5908 bohr
 
 
     Magnetic moment per site:
     atom:    1    charge:    3.9955    magn:    0.9018    constr:    0.0000
     atom:    2    charge:    3.9683    magn:    0.9045    constr:    0.0000
     atom:    3    charge:    3.9686    magn:    0.9058    constr:    0.0000
     atom:    4    charge:    3.9901    magn:    0.9134    constr:    0.0000
     atom:    5    charge:    3.9961    magn:    0.9013    constr:    0.0000
     atom:    6    charge:    3.9682    magn:    0.9045    constr:    0.0000
     atom:    7    charge:    3.9691    magn:    0.9051    constr:    0.0000
     atom:    8    charge:    3.9903    magn:    0.9132    constr:    0.0000
     atom:    9    charge:    3.9961    magn:    0.9012    constr:    0.0000
     atom:   10    charge:    3.9683    magn:    0.9058    constr:    0.0000
     atom:   11    charge:    3.9691    magn:    0.9050    constr:    0.0000
     atom:   12    charge:    3.9946    magn:    0.9057    constr:    0.0000
     atom:   13    charge:    3.9980    magn:    0.8994    constr:    0.0000
     atom:   14    charge:    3.9683    magn:    0.9059    constr:    0.0000
     atom:   15    charge:    3.9684    magn:    0.9048    constr:    0.0000
     atom:   16    charge:    3.9945    magn:    0.9059    constr:    0.0000
     atom:   17    charge:    3.9977    magn:    0.9021    constr:    0.0000
     atom:   18    charge:    3.9683    magn:    0.9044    constr:    0.0000
     atom:   19    charge:    3.9667    magn:    0.9165    constr:    0.0000
     atom:   20    charge:    3.9896    magn:    0.9143    constr:    0.0000
     atom:   21    charge:    3.9981    magn:    0.8994    constr:    0.0000
     atom:   22    charge:    3.9683    magn:    0.9044    constr:    0.0000
     atom:   23    charge:    3.9684    magn:    0.9047    constr:    0.0000
     atom:   24    charge:    3.9898    magn:    0.9141    constr:    0.0000
     atom:   25    charge:    3.9961    magn:    0.9013    constr:    0.0000
     atom:   26    charge:    3.9681    magn:    0.9063    constr:    0.0000
     atom:   27    charge:    3.9691    magn:    0.9050    constr:    0.0000
     atom:   28    charge:    3.9956    magn:    0.9045    constr:    0.0000
     atom:   29    charge:    3.9961    magn:    0.9012    constr:    0.0000
     atom:   30    charge:    3.9682    magn:    0.9054    constr:    0.0000
     atom:   31    charge:    3.9691    magn:    0.9050    constr:    0.0000
     atom:   32    charge:    3.9954    magn:    0.9049    constr:    0.0000
     atom:   33    charge:    3.9955    magn:    0.9019    constr:    0.0000
     atom:   34    charge:    3.9682    magn:    0.9063    constr:    0.0000
     atom:   35    charge:    3.9685    magn:    0.9060    constr:    0.0000
     atom:   36    charge:    3.9956    magn:    0.9045    constr:    0.0000
     atom:   37    charge:    2.0300    magn:    0.7904    constr:    0.0000

     total cpu time spent up to now is      899.5 secs

     total energy              =   -3654.84270956 Ry
     Harris-Foulkes estimate   =   -3654.86198683 Ry
     estimated scf accuracy    <       2.94057460 Ry

     total magnetization       =    38.21 Bohr mag/cell
     absolute magnetization    =    38.87 Bohr mag/cell

     iteration #  8     ecut=    44.10 Ry     beta=0.10
     Davidson diagonalization with overlap
     ethr =  8.03E-04,  avg # of iterations =  5.5

     negative rho (up, down):  4.583E-04 2.841E-04
 
     Adding external electric field

     Computed dipole along edir(3) : 
        Dipole               -0.4141 Ry au,         -1.0524 Debye
        Dipole field         -0.0005 Ry au
 
        Potential amp.        0.0353 Ry
        Total length         34.5908 bohr
 
 
     Adding external electric field

     Computed dipole along edir(3) : 
        Dipole               -0.4141 Ry au,         -1.0524 Debye
        Dipole field         -0.0005 Ry au
 
        Potential amp.        0.0353 Ry
        Total length         34.5908 bohr
 
 
     Magnetic moment per site:
     atom:    1    charge:    3.9910    magn:    0.8106    constr:    0.0000
     atom:    2    charge:    3.9661    magn:    0.8134    constr:    0.0000
     atom:    3    charge:    3.9612    magn:    0.8197    constr:    0.0000
     atom:    4    charge:    3.9874    magn:    0.8261    constr:    0.0000
     atom:    5    charge:    3.9893    magn:    0.8116    constr:    0.0000
     atom:    6    charge:    3.9662    magn:    0.8133    constr:    0.0000
     atom:    7    charge:    3.9602    magn:    0.8198    constr:    0.0000
     atom:    8    charge:    3.9877    magn:    0.8257    constr:    0.0000
     atom:    9    charge:    3.9892    magn:    0.8116    constr:    0.0000
     atom:   10    charge:    3.9668    magn:    0.8151    constr:    0.0000
     atom:   11    charge:    3.9602    magn:    0.8197    constr:    0.0000
     atom:   12    charge:    3.9898    magn:    0.8163    constr:    0.0000
     atom:   13    charge:    3.9852    magn:    0.8148    constr:    0.0000
     atom:   14    charge:    3.9668    magn:    0.8150    constr:    0.0000
     atom:   15    charge:    3.9675    magn:    0.8130    constr:    0.0000
     atom:   16    charge:    3.9902    magn:    0.8163    constr:    0.0000
     atom:   17    charge:    3.9859    magn:    0.8174    constr:    0.0000
     atom:   18    charge:    3.9660    magn:    0.8132    constr:    0.0000
     atom:   19    charge:    3.9678    magn:    0.8287    constr:    0.0000
     atom:   20    charge:    3.9871    magn:    0.8273    constr:    0.0000
     atom:   21    charge:    3.9852    magn:    0.8147    constr:    0.0000
     atom:   22    charge:    3.9661    magn:    0.8132    constr:    0.0000
     atom:   23    charge:    3.9675    magn:    0.8128    constr:    0.0000
     atom:   24    charge:    3.9874    magn:    0.8268    constr:    0.0000
     atom:   25    charge:    3.9894    magn:    0.8115    constr:    0.0000
     atom:   26    charge:    3.9645    magn:    0.8171    constr:    0.0000
     atom:   27    charge:    3.9605    magn:    0.8194    constr:    0.0000
     atom:   28    charge:    3.9934    magn:    0.8122    constr:    0.0000
     atom:   29    charge:    3.9893    magn:    0.8115    constr:    0.0000
     atom:   30    charge:    3.9656    magn:    0.8147    constr:    0.0000
     atom:   31    charge:    3.9605    magn:    0.8194    constr:    0.0000
     atom:   32    charge:    3.9956    magn:    0.8108    constr:    0.0000
     atom:   33    charge:    3.9911    magn:    0.8105    constr:    0.0000
     atom:   34    charge:    3.9645    magn:    0.8171    constr:    0.0000
     atom:   35    charge:    3.9615    magn:    0.8198    constr:    0.0000
     atom:   36    charge:    3.9935    magn:    0.8121    constr:    0.0000
     atom:   37    charge:    2.0224    magn:    0.7188    constr:    0.0000

     total cpu time spent up to now is     1028.9 secs

     total energy              =   -3655.13881135 Ry
     Harris-Foulkes estimate   =   -3654.89240897 Ry
     estimated scf accuracy    <       1.01449196 Ry

     total magnetization       =    37.78 Bohr mag/cell
     absolute magnetization    =    38.58 Bohr mag/cell

     iteration #  9     ecut=    44.10 Ry     beta=0.10
     Davidson diagonalization with overlap
     ethr =  2.77E-04,  avg # of iterations =  9.2

     negative rho (up, down):  4.528E-04 3.293E-04
 
     Adding external electric field

     Computed dipole along edir(3) : 
        Dipole               -0.3477 Ry au,         -0.8837 Debye
        Dipole field         -0.0004 Ry au
 
        Potential amp.        0.0296 Ry
        Total length         34.5908 bohr
 
 
     Adding external electric field

     Computed dipole along edir(3) : 
        Dipole               -0.3477 Ry au,         -0.8837 Debye
        Dipole field         -0.0004 Ry au
 
        Potential amp.        0.0296 Ry
        Total length         34.5908 bohr
 
 
     Magnetic moment per site:
     atom:    1    charge:    3.9809    magn:    0.7061    constr:    0.0000
     atom:    2    charge:    3.9611    magn:    0.7058    constr:    0.0000
     atom:    3    charge:    3.9622    magn:    0.7095    constr:    0.0000
     atom:    4    charge:    3.9864    magn:    0.7198    constr:    0.0000
     atom:    5    charge:    3.9827    magn:    0.7039    constr:    0.0000
     atom:    6    charge:    3.9610    magn:    0.7059    constr:    0.0000
     atom:    7    charge:    3.9616    magn:    0.7089    constr:    0.0000
     atom:    8    charge:    3.9865    magn:    0.7195    constr:    0.0000
     atom:    9    charge:    3.9828    magn:    0.7038    constr:    0.0000
     atom:   10    charge:    3.9618    magn:    0.7084    constr:    0.0000
     atom:   11    charge:    3.9616    magn:    0.7088    constr:    0.0000
     atom:   12    charge:    3.9884    magn:    0.7060    constr:    0.0000
     atom:   13    charge:    3.9838    magn:    0.7030    constr:    0.0000
     atom:   14    charge:    3.9614    magn:    0.7088    constr:    0.0000
     atom:   15    charge:    3.9632    magn:    0.7052    constr:    0.0000
     atom:   16    charge:    3.9877    magn:    0.7070    constr:    0.0000
     atom:   17    charge:    3.9831    magn:    0.7079    constr:    0.0000
     atom:   18    charge:    3.9607    magn:    0.7059    constr:    0.0000
     atom:   19    charge:    3.9651    magn:    0.7266    constr:    0.0000
     atom:   20    charge:    3.9855    magn:    0.7219    constr:    0.0000
     atom:   21    charge:    3.9837    magn:    0.7029    constr:    0.0000
     atom:   22    charge:    3.9606    magn:    0.7060    constr:    0.0000
     atom:   23    charge:    3.9630    magn:    0.7051    constr:    0.0000
     atom:   24    charge:    3.9855    magn:    0.7216    constr:    0.0000
     atom:   25    charge:    3.9822    magn:    0.7043    constr:    0.0000
     atom:   26    charge:    3.9620    magn:    0.7090    constr:    0.0000
     atom:   27    charge:    3.9613    magn:    0.7089    constr:    0.0000
     atom:   28    charge:    3.9879    magn:    0.7043    constr:    0.0000
     atom:   29    charge:    3.9823    magn:    0.7042    constr:    0.0000
     atom:   30    charge:    3.9630    magn:    0.7054    constr:    0.0000
     atom:   31    charge:    3.9613    magn:    0.7088    constr:    0.0000
     atom:   32    charge:    3.9849    magn:    0.7076    constr:    0.0000
     atom:   33    charge:    3.9804    magn:    0.7067    constr:    0.0000
     atom:   34    charge:    3.9620    magn:    0.7090    constr:    0.0000
     atom:   35    charge:    3.9619    magn:    0.7101    constr:    0.0000
     atom:   36    charge:    3.9878    magn:    0.7044    constr:    0.0000
     atom:   37    charge:    2.0156    magn:    0.6310    constr:    0.0000

     total cpu time spent up to now is     1180.4 secs

     total energy              =   -3655.38919421 Ry
     Harris-Foulkes estimate   =   -3655.18352005 Ry
     estimated scf accuracy    <       1.31839555 Ry

     total magnetization       =    35.74 Bohr mag/cell
     absolute magnetization    =    37.10 Bohr mag/cell

     iteration # 10     ecut=    44.10 Ry     beta=0.10
     Davidson diagonalization with overlap
     ethr =  2.77E-04,  avg # of iterations =  2.4

     negative rho (up, down):  4.557E-04 3.813E-04
 
     Adding external electric field

     Computed dipole along edir(3) : 
        Dipole               -0.4377 Ry au,         -1.1126 Debye
        Dipole field         -0.0005 Ry au
 
        Potential amp.        0.0373 Ry
        Total length         34.5908 bohr
 
 
     Adding external electric field

     Computed dipole along edir(3) : 
        Dipole               -0.4377 Ry au,         -1.1126 Debye
        Dipole field         -0.0005 Ry au
 
        Potential amp.        0.0373 Ry
        Total length         34.5908 bohr
 
 
     Magnetic moment per site:
     atom:    1    charge:    3.9831    magn:    0.6337    constr:    0.0000
     atom:    2    charge:    3.9614    magn:    0.6345    constr:    0.0000
     atom:    3    charge:    3.9639    magn:    0.6380    constr:    0.0000
     atom:    4    charge:    3.9842    magn:    0.6533    constr:    0.0000
     atom:    5    charge:    3.9803    magn:    0.6350    constr:    0.0000
     atom:    6    charge:    3.9615    magn:    0.6345    constr:    0.0000
     atom:    7    charge:    3.9641    magn:    0.6366    constr:    0.0000
     atom:    8    charge:    3.9847    magn:    0.6526    constr:    0.0000
     atom:    9    charge:    3.9800    magn:    0.6353    constr:    0.0000
     atom:   10    charge:    3.9603    magn:    0.6393    constr:    0.0000
     atom:   11    charge:    3.9640    magn:    0.6365    constr:    0.0000
     atom:   12    charge:    3.9846    magn:    0.6383    constr:    0.0000
     atom:   13    charge:    3.9830    magn:    0.6326    constr:    0.0000
     atom:   14    charge:    3.9625    magn:    0.6375    constr:    0.0000
     atom:   15    charge:    3.9659    magn:    0.6319    constr:    0.0000
     atom:   16    charge:    3.9880    magn:    0.6358    constr:    0.0000
     atom:   17    charge:    3.9837    magn:    0.6373    constr:    0.0000
     atom:   18    charge:    3.9633    magn:    0.6327    constr:    0.0000
     atom:   19    charge:    3.9699    magn:    0.6560    constr:    0.0000
     atom:   20    charge:    3.9865    magn:    0.6528    constr:    0.0000
     atom:   21    charge:    3.9833    magn:    0.6323    constr:    0.0000
     atom:   22    charge:    3.9635    magn:    0.6326    constr:    0.0000
     atom:   23    charge:    3.9661    magn:    0.6317    constr:    0.0000
     atom:   24    charge:    3.9870    magn:    0.6521    constr:    0.0000
     atom:   25    charge:    3.9833    magn:    0.6323    constr:    0.0000
     atom:   26    charge:    3.9619    magn:    0.6386    constr:    0.0000
     atom:   27    charge:    3.9659    magn:    0.6348    constr:    0.0000
     atom:   28    charge:    3.9839    magn:    0.6364    constr:    0.0000
     atom:   29    charge:    3.9831    magn:    0.6325    constr:    0.0000
     atom:   30    charge:    3.9612    magn:    0.6351    constr:    0.0000
     atom:   31    charge:    3.9658    magn:    0.6347    constr:    0.0000
     atom:   32    charge:    3.9878    magn:    0.6343    constr:    0.0000
     atom:   33    charge:    3.9858    magn:    0.6314    constr:    0.0000
     atom:   34    charge:    3.9618    magn:    0.6387    constr:    0.0000
     atom:   35    charge:    3.9657    magn:    0.6369    constr:    0.0000
     atom:   36    charge:    3.9840    magn:    0.6364    constr:    0.0000
     atom:   37    charge:    2.0147    magn:    0.5709    constr:    0.0000

     total cpu time spent up to now is     1296.7 secs

     total energy              =   -3655.51148807 Ry
     Harris-Foulkes estimate   =   -3655.42759439 Ry
     estimated scf accuracy    <       0.74972859 Ry

     total magnetization       =    33.18 Bohr mag/cell
     absolute magnetization    =    35.32 Bohr mag/cell

     iteration # 11     ecut=    44.10 Ry     beta=0.10
     Davidson diagonalization with overlap
     ethr =  2.05E-04,  avg # of iterations =  5.1

     negative rho (up, down):  4.614E-04 4.392E-04
 
     Adding external electric field

     Computed dipole along edir(3) : 
        Dipole               -0.5482 Ry au,         -1.3935 Debye
        Dipole field         -0.0007 Ry au
 
        Potential amp.        0.0467 Ry
        Total length         34.5908 bohr
 
 
     Adding external electric field

     Computed dipole along edir(3) : 
        Dipole               -0.5482 Ry au,         -1.3935 Debye
        Dipole field         -0.0007 Ry au
 
        Potential amp.        0.0467 Ry
        Total length         34.5908 bohr
 
 
     Magnetic moment per site:
     atom:    1    charge:    3.9875    magn:    0.5653    constr:    0.0000
     atom:    2    charge:    3.9654    magn:    0.5664    constr:    0.0000
     atom:    3    charge:    3.9680    magn:    0.5705    constr:    0.0000
     atom:    4    charge:    3.9861    magn:    0.5890    constr:    0.0000
     atom:    5    charge:    3.9840    magn:    0.5672    constr:    0.0000
     atom:    6    charge:    3.9655    magn:    0.5663    constr:    0.0000
     atom:    7    charge:    3.9687    magn:    0.5684    constr:    0.0000
     atom:    8    charge:    3.9866    magn:    0.5882    constr:    0.0000
     atom:    9    charge:    3.9837    magn:    0.5675    constr:    0.0000
     atom:   10    charge:    3.9641    magn:    0.5719    constr:    0.0000
     atom:   11    charge:    3.9687    magn:    0.5682    constr:    0.0000
     atom:   12    charge:    3.9867    magn:    0.5717    constr:    0.0000
     atom:   13    charge:    3.9834    magn:    0.5676    constr:    0.0000
     atom:   14    charge:    3.9632    magn:    0.5726    constr:    0.0000
     atom:   15    charge:    3.9695    magn:    0.5640    constr:    0.0000
     atom:   16    charge:    3.9857    magn:    0.5730    constr:    0.0000
     atom:   17    charge:    3.9833    magn:    0.5737    constr:    0.0000
     atom:   18    charge:    3.9640    magn:    0.5670    constr:    0.0000
     atom:   19    charge:    3.9732    magn:    0.5922    constr:    0.0000
     atom:   20    charge:    3.9842    magn:    0.5924    constr:    0.0000
     atom:   21    charge:    3.9836    magn:    0.5673    constr:    0.0000
     atom:   22    charge:    3.9641    magn:    0.5670    constr:    0.0000
     atom:   23    charge:    3.9695    magn:    0.5637    constr:    0.0000
     atom:   24    charge:    3.9846    magn:    0.5916    constr:    0.0000
     atom:   25    charge:    3.9824    magn:    0.5684    constr:    0.0000
     atom:   26    charge:    3.9637    magn:    0.5728    constr:    0.0000
     atom:   27    charge:    3.9669    magn:    0.5694    constr:    0.0000
     atom:   28    charge:    3.9827    magn:    0.5724    constr:    0.0000
     atom:   29    charge:    3.9823    magn:    0.5685    constr:    0.0000
     atom:   30    charge:    3.9625    magn:    0.5686    constr:    0.0000
     atom:   31    charge:    3.9669    magn:    0.5692    constr:    0.0000
     atom:   32    charge:    3.9875    magn:    0.5695    constr:    0.0000
     atom:   33    charge:    3.9846    magn:    0.5680    constr:    0.0000
     atom:   34    charge:    3.9637    magn:    0.5729    constr:    0.0000
     atom:   35    charge:    3.9662    magn:    0.5722    constr:    0.0000
     atom:   36    charge:    3.9829    magn:    0.5722    constr:    0.0000
     atom:   37    charge:    2.0134    magn:    0.5149    constr:    0.0000

     total cpu time spent up to now is     1423.8 secs

     total energy              =   -3655.56912622 Ry
     Harris-Foulkes estimate   =   -3655.55740527 Ry
     estimated scf accuracy    <       1.93329377 Ry

     total magnetization       =    31.35 Bohr mag/cell
     absolute magnetization    =    34.12 Bohr mag/cell

     iteration # 12     ecut=    44.10 Ry     beta=0.10
     Davidson diagonalization with overlap
     ethr =  2.05E-04,  avg # of iterations =  2.7

     negative rho (up, down):  4.563E-04 4.439E-04
 
     Adding external electric field

     Computed dipole along edir(3) : 
        Dipole               -0.5194 Ry au,         -1.3203 Debye
        Dipole field         -0.0006 Ry au
 
        Potential amp.        0.0442 Ry
        Total length         34.5908 bohr
 
 
     Adding external electric field

     Computed dipole along edir(3) : 
        Dipole               -0.5194 Ry au,         -1.3203 Debye
        Dipole field         -0.0006 Ry au
 
        Potential amp.        0.0442 Ry
        Total length         34.5908 bohr
 
 
     Magnetic moment per site:
     atom:    1    charge:    3.9802    magn:    0.5394    constr:    0.0000
     atom:    2    charge:    3.9646    magn:    0.5358    constr:    0.0000
     atom:    3    charge:    3.9653    magn:    0.5418    constr:    0.0000
     atom:    4    charge:    3.9849    magn:    0.5598    constr:    0.0000
     atom:    5    charge:    3.9819    magn:    0.5371    constr:    0.0000
     atom:    6    charge:    3.9645    magn:    0.5360    constr:    0.0000
     atom:    7    charge:    3.9653    magn:    0.5399    constr:    0.0000
     atom:    8    charge:    3.9850    magn:    0.5593    constr:    0.0000
     atom:    9    charge:    3.9821    magn:    0.5370    constr:    0.0000
     atom:   10    charge:    3.9654    magn:    0.5402    constr:    0.0000
     atom:   11    charge:    3.9654    magn:    0.5396    constr:    0.0000
     atom:   12    charge:    3.9861    magn:    0.5406    constr:    0.0000
     atom:   13    charge:    3.9816    magn:    0.5372    constr:    0.0000
     atom:   14    charge:    3.9654    magn:    0.5401    constr:    0.0000
     atom:   15    charge:    3.9688    magn:    0.5332    constr:    0.0000
     atom:   16    charge:    3.9860    magn:    0.5412    constr:    0.0000
     atom:   17    charge:    3.9803    magn:    0.5446    constr:    0.0000
     atom:   18    charge:    3.9648    magn:    0.5353    constr:    0.0000
     atom:   19    charge:    3.9715    magn:    0.5646    constr:    0.0000
     atom:   20    charge:    3.9844    magn:    0.5621    constr:    0.0000
     atom:   21    charge:    3.9815    magn:    0.5371    constr:    0.0000
     atom:   22    charge:    3.9647    magn:    0.5354    constr:    0.0000
     atom:   23    charge:    3.9686    magn:    0.5331    constr:    0.0000
     atom:   24    charge:    3.9845    magn:    0.5615    constr:    0.0000
     atom:   25    charge:    3.9820    magn:    0.5368    constr:    0.0000
     atom:   26    charge:    3.9650    magn:    0.5412    constr:    0.0000
     atom:   27    charge:    3.9655    magn:    0.5393    constr:    0.0000
     atom:   28    charge:    3.9839    magn:    0.5397    constr:    0.0000
     atom:   29    charge:    3.9821    magn:    0.5368    constr:    0.0000
     atom:   30    charge:    3.9651    magn:    0.5355    constr:    0.0000
     atom:   31    charge:    3.9656    magn:    0.5390    constr:    0.0000
     atom:   32    charge:    3.9824    magn:    0.5416    constr:    0.0000
     atom:   33    charge:    3.9810    magn:    0.5390    constr:    0.0000
     atom:   34    charge:    3.9651    magn:    0.5412    constr:    0.0000
     atom:   35    charge:    3.9658    magn:    0.5419    constr:    0.0000
     atom:   36    charge:    3.9839    magn:    0.5397    constr:    0.0000
     atom:   37    charge:    2.0077    magn:    0.4903    constr:    0.0000

     total cpu time spent up to now is     1541.5 secs

     total energy              =   -3655.61446418 Ry
     Harris-Foulkes estimate   =   -3655.62777783 Ry
     estimated scf accuracy    <       1.10753415 Ry

     total magnetization       =    29.46 Bohr mag/cell
     absolute magnetization    =    32.87 Bohr mag/cell

     iteration # 13     ecut=    44.10 Ry     beta=0.10
     Davidson diagonalization with overlap
     ethr =  2.05E-04,  avg # of iterations =  1.0

     negative rho (up, down):  4.537E-04 4.550E-04
 
     Adding external electric field

     Computed dipole along edir(3) : 
        Dipole               -0.5583 Ry au,         -1.4191 Debye
        Dipole field         -0.0007 Ry au
 
        Potential amp.        0.0475 Ry
        Total length         34.5908 bohr
 
 
     Adding external electric field

     Computed dipole along edir(3) : 
        Dipole               -0.5583 Ry au,         -1.4191 Debye
        Dipole field         -0.0007 Ry au
 
        Potential amp.        0.0475 Ry
        Total length         34.5908 bohr
 
 
     Magnetic moment per site:
     atom:    1    charge:    3.9823    magn:    0.5044    constr:    0.0000
     atom:    2    charge:    3.9677    magn:    0.4996    constr:    0.0000
     atom:    3    charge:    3.9677    magn:    0.5067    constr:    0.0000
     atom:    4    charge:    3.9852    magn:    0.5271    constr:    0.0000
     atom:    5    charge:    3.9812    magn:    0.5042    constr:    0.0000
     atom:    6    charge:    3.9679    magn:    0.4995    constr:    0.0000
     atom:    7    charge:    3.9665    magn:    0.5052    constr:    0.0000
     atom:    8    charge:    3.9857    magn:    0.5263    constr:    0.0000
     atom:    9    charge:    3.9811    magn:    0.5045    constr:    0.0000
     atom:   10    charge:    3.9672    magn:    0.5052    constr:    0.0000
     atom:   11    charge:    3.9663    magn:    0.5051    constr:    0.0000
     atom:   12    charge:    3.9849    magn:    0.5081    constr:    0.0000
     atom:   13    charge:    3.9817    magn:    0.5039    constr:    0.0000
     atom:   14    charge:    3.9672    magn:    0.5052    constr:    0.0000
     atom:   15    charge:    3.9678    magn:    0.4997    constr:    0.0000
     atom:   16    charge:    3.9852    magn:    0.5085    constr:    0.0000
     atom:   17    charge:    3.9829    magn:    0.5096    constr:    0.0000
     atom:   18    charge:    3.9675    magn:    0.4993    constr:    0.0000
     atom:   19    charge:    3.9727    magn:    0.5323    constr:    0.0000
     atom:   20    charge:    3.9851    magn:    0.5293    constr:    0.0000
     atom:   21    charge:    3.9820    magn:    0.5035    constr:    0.0000
     atom:   22    charge:    3.9677    magn:    0.4992    constr:    0.0000
     atom:   23    charge:    3.9680    magn:    0.4993    constr:    0.0000
     atom:   24    charge:    3.9856    magn:    0.5284    constr:    0.0000
     atom:   25    charge:    3.9810    magn:    0.5043    constr:    0.0000
     atom:   26    charge:    3.9684    magn:    0.5052    constr:    0.0000
     atom:   27    charge:    3.9666    magn:    0.5046    constr:    0.0000
     atom:   28    charge:    3.9837    magn:    0.5059    constr:    0.0000
     atom:   29    charge:    3.9807    magn:    0.5045    constr:    0.0000
     atom:   30    charge:    3.9681    magn:    0.4989    constr:    0.0000
     atom:   31    charge:    3.9665    magn:    0.5045    constr:    0.0000
     atom:   32    charge:    3.9826    magn:    0.5076    constr:    0.0000
     atom:   33    charge:    3.9820    magn:    0.5050    constr:    0.0000
     atom:   34    charge:    3.9682    magn:    0.5053    constr:    0.0000
     atom:   35    charge:    3.9676    magn:    0.5072    constr:    0.0000
     atom:   36    charge:    3.9834    magn:    0.5061    constr:    0.0000
     atom:   37    charge:    2.0026    magn:    0.4602    constr:    0.0000

     total cpu time spent up to now is     1650.9 secs

     total energy              =   -3655.64621235 Ry
     Harris-Foulkes estimate   =   -3655.63657754 Ry
     estimated scf accuracy    <       0.14858569 Ry

     total magnetization       =    28.36 Bohr mag/cell
     absolute magnetization    =    32.09 Bohr mag/cell

     iteration # 14     ecut=    44.10 Ry     beta=0.10
     Davidson diagonalization with overlap
     c_bands:  2 eigenvalues not converged
     ethr =  4.06E-05,  avg # of iterations =  9.4

     negative rho (up, down):  4.513E-04 4.629E-04
 
     Adding external electric field

     Computed dipole along edir(3) : 
        Dipole               -0.6096 Ry au,         -1.5495 Debye
        Dipole field         -0.0008 Ry au
 
        Potential amp.        0.0519 Ry
        Total length         34.5908 bohr
 
 
     Adding external electric field

     Computed dipole along edir(3) : 
        Dipole               -0.6096 Ry au,         -1.5495 Debye
        Dipole field         -0.0008 Ry au
 
        Potential amp.        0.0519 Ry
        Total length         34.5908 bohr
 
 
     Magnetic moment per site:
     atom:    1    charge:    3.9826    magn:    0.4751    constr:    0.0000
     atom:    2    charge:    3.9682    magn:    0.4689    constr:    0.0000
     atom:    3    charge:    3.9682    magn:    0.4768    constr:    0.0000
     atom:    4    charge:    3.9851    magn:    0.4988    constr:    0.0000
     atom:    5    charge:    3.9822    magn:    0.4742    constr:    0.0000
     atom:    6    charge:    3.9681    magn:    0.4690    constr:    0.0000
     atom:    7    charge:    3.9687    magn:    0.4735    constr:    0.0000
     atom:    8    charge:    3.9852    magn:    0.4983    constr:    0.0000
     atom:    9    charge:    3.9824    magn:    0.4742    constr:    0.0000
     atom:   10    charge:    3.9690    magn:    0.4739    constr:    0.0000
     atom:   11    charge:    3.9688    magn:    0.4732    constr:    0.0000
     atom:   12    charge:    3.9861    magn:    0.4779    constr:    0.0000
     atom:   13    charge:    3.9831    magn:    0.4737    constr:    0.0000
     atom:   14    charge:    3.9690    magn:    0.4737    constr:    0.0000
     atom:   15    charge:    3.9703    magn:    0.4678    constr:    0.0000
     atom:   16    charge:    3.9861    magn:    0.4786    constr:    0.0000
     atom:   17    charge:    3.9813    magn:    0.4820    constr:    0.0000
     atom:   18    charge:    3.9682    magn:    0.4684    constr:    0.0000
     atom:   19    charge:    3.9736    magn:    0.5041    constr:    0.0000
     atom:   20    charge:    3.9846    magn:    0.5015    constr:    0.0000
     atom:   21    charge:    3.9829    magn:    0.4736    constr:    0.0000
     atom:   22    charge:    3.9680    magn:    0.4686    constr:    0.0000
     atom:   23    charge:    3.9701    magn:    0.4677    constr:    0.0000
     atom:   24    charge:    3.9846    magn:    0.5009    constr:    0.0000
     atom:   25    charge:    3.9826    magn:    0.4738    constr:    0.0000
     atom:   26    charge:    3.9681    magn:    0.4753    constr:    0.0000
     atom:   27    charge:    3.9686    magn:    0.4732    constr:    0.0000
     atom:   28    charge:    3.9826    magn:    0.4770    constr:    0.0000
     atom:   29    charge:    3.9827    magn:    0.4738    constr:    0.0000
     atom:   30    charge:    3.9692    magn:    0.4673    constr:    0.0000
     atom:   31    charge:    3.9687    magn:    0.4728    constr:    0.0000
     atom:   32    charge:    3.9851    magn:    0.4760    constr:    0.0000
     atom:   33    charge:    3.9826    magn:    0.4754    constr:    0.0000
     atom:   34    charge:    3.9683    magn:    0.4753    constr:    0.0000
     atom:   35    charge:    3.9680    magn:    0.4775    constr:    0.0000
     atom:   36    charge:    3.9829    magn:    0.4768    constr:    0.0000
     atom:   37    charge:    1.9995    magn:    0.4329    constr:    0.0000

     total cpu time spent up to now is     1799.2 secs

     total energy              =   -3655.65417220 Ry
     Harris-Foulkes estimate   =   -3655.65344862 Ry
     estimated scf accuracy    <       0.16529217 Ry

     total magnetization       =    27.45 Bohr mag/cell
     absolute magnetization    =    31.48 Bohr mag/cell

     iteration # 15     ecut=    44.10 Ry     beta=0.10
     Davidson diagonalization with overlap
     ethr =  4.06E-05,  avg # of iterations =  1.0

     negative rho (up, down):  4.432E-04 4.414E-04
 
     Adding external electric field

     Computed dipole along edir(3) : 
        Dipole               -0.5094 Ry au,         -1.2947 Debye
        Dipole field         -0.0006 Ry au
 
        Potential amp.        0.0434 Ry
        Total length         34.5908 bohr
 
 
     Adding external electric field

     Computed dipole along edir(3) : 
        Dipole               -0.5094 Ry au,         -1.2947 Debye
        Dipole field         -0.0006 Ry au
 
        Potential amp.        0.0434 Ry
        Total length         34.5908 bohr
 
 
     Magnetic moment per site:
     atom:    1    charge:    3.9832    magn:    0.4659    constr:    0.0000
     atom:    2    charge:    3.9692    magn:    0.4588    constr:    0.0000
     atom:    3    charge:    3.9695    magn:    0.4668    constr:    0.0000
     atom:    4    charge:    3.9839    magn:    0.4914    constr:    0.0000
     atom:    5    charge:    3.9833    magn:    0.4647    constr:    0.0000
     atom:    6    charge:    3.9691    magn:    0.4589    constr:    0.0000
     atom:    7    charge:    3.9697    magn:    0.4635    constr:    0.0000
     atom:    8    charge:    3.9840    magn:    0.4908    constr:    0.0000
     atom:    9    charge:    3.9833    magn:    0.4648    constr:    0.0000
     atom:   10    charge:    3.9697    magn:    0.4641    constr:    0.0000
     atom:   11    charge:    3.9697    magn:    0.4633    constr:    0.0000
     atom:   12    charge:    3.9842    magn:    0.4708    constr:    0.0000
     atom:   13    charge:    3.9832    magn:    0.4650    constr:    0.0000
     atom:   14    charge:    3.9697    magn:    0.4639    constr:    0.0000
     atom:   15    charge:    3.9714    magn:    0.4580    constr:    0.0000
     atom:   16    charge:    3.9843    magn:    0.4715    constr:    0.0000
     atom:   17    charge:    3.9821    magn:    0.4728    constr:    0.0000
     atom:   18    charge:    3.9692    magn:    0.4583    constr:    0.0000
     atom:   19    charge:    3.9747    magn:    0.4951    constr:    0.0000
     atom:   20    charge:    3.9834    magn:    0.4940    constr:    0.0000
     atom:   21    charge:    3.9831    magn:    0.4648    constr:    0.0000
     atom:   22    charge:    3.9692    magn:    0.4584    constr:    0.0000
     atom:   23    charge:    3.9713    magn:    0.4578    constr:    0.0000
     atom:   24    charge:    3.9836    magn:    0.4933    constr:    0.0000
     atom:   25    charge:    3.9833    magn:    0.4645    constr:    0.0000
     atom:   26    charge:    3.9695    magn:    0.4650    constr:    0.0000
     atom:   27    charge:    3.9696    magn:    0.4631    constr:    0.0000
     atom:   28    charge:    3.9830    magn:    0.4678    constr:    0.0000
     atom:   29    charge:    3.9834    magn:    0.4646    constr:    0.0000
     atom:   30    charge:    3.9696    magn:    0.4573    constr:    0.0000
     atom:   31    charge:    3.9696    magn:    0.4629    constr:    0.0000
     atom:   32    charge:    3.9830    magn:    0.4687    constr:    0.0000
     atom:   33    charge:    3.9833    magn:    0.4661    constr:    0.0000
     atom:   34    charge:    3.9695    magn:    0.4650    constr:    0.0000
     atom:   35    charge:    3.9695    magn:    0.4674    constr:    0.0000
     atom:   36    charge:    3.9831    magn:    0.4678    constr:    0.0000
     atom:   37    charge:    1.9982    magn:    0.4241    constr:    0.0000

     total cpu time spent up to now is     1908.7 secs

     total energy              =   -3655.65554500 Ry
     Harris-Foulkes estimate   =   -3655.66153478 Ry
     estimated scf accuracy    <       0.15846559 Ry

     total magnetization       =    26.79 Bohr mag/cell
     absolute magnetization    =    31.03 Bohr mag/cell

     iteration # 16     ecut=    44.10 Ry     beta=0.10
     Davidson diagonalization with overlap
     ethr =  4.06E-05,  avg # of iterations =  1.0

     negative rho (up, down):  4.392E-04 4.355E-04
 
     Adding external electric field

     Computed dipole along edir(3) : 
        Dipole               -0.6385 Ry au,         -1.6230 Debye
        Dipole field         -0.0008 Ry au
 
        Potential amp.        0.0544 Ry
        Total length         34.5908 bohr
 
 
     Adding external electric field

     Computed dipole along edir(3) : 
        Dipole               -0.6385 Ry au,         -1.6230 Debye
        Dipole field         -0.0008 Ry au
 
        Potential amp.        0.0544 Ry
        Total length         34.5908 bohr
 
 
     Magnetic moment per site:
     atom:    1    charge:    3.9840    magn:    0.4482    constr:    0.0000
     atom:    2    charge:    3.9705    magn:    0.4390    constr:    0.0000
     atom:    3    charge:    3.9714    magn:    0.4473    constr:    0.0000
     atom:    4    charge:    3.9849    magn:    0.4741    constr:    0.0000
     atom:    5    charge:    3.9846    magn:    0.4467    constr:    0.0000
     atom:    6    charge:    3.9705    magn:    0.4390    constr:    0.0000
     atom:    7    charge:    3.9712    magn:    0.4436    constr:    0.0000
     atom:    8    charge:    3.9852    magn:    0.4733    constr:    0.0000
     atom:    9    charge:    3.9845    magn:    0.4469    constr:    0.0000
     atom:   10    charge:    3.9707    magn:    0.4445    constr:    0.0000
     atom:   11    charge:    3.9711    magn:    0.4435    constr:    0.0000
     atom:   12    charge:    3.9849    magn:    0.4534    constr:    0.0000
     atom:   13    charge:    3.9835    magn:    0.4479    constr:    0.0000
     atom:   14    charge:    3.9706    magn:    0.4443    constr:    0.0000
     atom:   15    charge:    3.9734    magn:    0.4380    constr:    0.0000
     atom:   16    charge:    3.9849    magn:    0.4541    constr:    0.0000
     atom:   17    charge:    3.9834    magn:    0.4551    constr:    0.0000
     atom:   18    charge:    3.9705    magn:    0.4384    constr:    0.0000
     atom:   19    charge:    3.9767    magn:    0.4772    constr:    0.0000
     atom:   20    charge:    3.9846    magn:    0.4767    constr:    0.0000
     atom:   21    charge:    3.9836    magn:    0.4476    constr:    0.0000
     atom:   22    charge:    3.9706    magn:    0.4384    constr:    0.0000
     atom:   23    charge:    3.9734    magn:    0.4378    constr:    0.0000
     atom:   24    charge:    3.9849    magn:    0.4758    constr:    0.0000
     atom:   25    charge:    3.9843    magn:    0.4468    constr:    0.0000
     atom:   26    charge:    3.9710    magn:    0.4453    constr:    0.0000
     atom:   27    charge:    3.9711    magn:    0.4432    constr:    0.0000
     atom:   28    charge:    3.9855    magn:    0.4483    constr:    0.0000
     atom:   29    charge:    3.9842    magn:    0.4470    constr:    0.0000
     atom:   30    charge:    3.9703    magn:    0.4373    constr:    0.0000
     atom:   31    charge:    3.9710    magn:    0.4430    constr:    0.0000
     atom:   32    charge:    3.9832    magn:    0.4509    constr:    0.0000
     atom:   33    charge:    3.9842    magn:    0.4484    constr:    0.0000
     atom:   34    charge:    3.9709    magn:    0.4454    constr:    0.0000
     atom:   35    charge:    3.9717    magn:    0.4477    constr:    0.0000
     atom:   36    charge:    3.9853    magn:    0.4485    constr:    0.0000
     atom:   37    charge:    1.9955    magn:    0.4053    constr:    0.0000

     total cpu time spent up to now is     2019.2 secs

     total energy              =   -3655.65231607 Ry
     Harris-Foulkes estimate   =   -3655.66565658 Ry
     estimated scf accuracy    <       0.63790736 Ry

     total magnetization       =    26.57 Bohr mag/cell
     absolute magnetization    =    30.89 Bohr mag/cell

     iteration # 17     ecut=    44.10 Ry     beta=0.10
     Davidson diagonalization with overlap
     ethr =  4.06E-05,  avg # of iterations =  1.0

     negative rho (up, down):  4.356E-04 4.271E-04
 
     Adding external electric field

     Computed dipole along edir(3) : 
        Dipole               -0.6412 Ry au,         -1.6299 Debye
        Dipole field         -0.0008 Ry au
 
        Potential amp.        0.0546 Ry
        Total length         34.5908 bohr
 
 
     Adding external electric field

     Computed dipole along edir(3) : 
        Dipole               -0.6412 Ry au,         -1.6299 Debye
        Dipole field         -0.0008 Ry au
 
        Potential amp.        0.0546 Ry
        Total length         34.5908 bohr
 
 
     Magnetic moment per site:
     atom:    1    charge:    3.9850    magn:    0.4331    constr:    0.0000
     atom:    2    charge:    3.9730    magn:    0.4201    constr:    0.0000
     atom:    3    charge:    3.9729    magn:    0.4301    constr:    0.0000
     atom:    4    charge:    3.9850    magn:    0.4601    constr:    0.0000
     atom:    5    charge:    3.9852    magn:    0.4318    constr:    0.0000
     atom:    6    charge:    3.9731    magn:    0.4201    constr:    0.0000
     atom:    7    charge:    3.9729    magn:    0.4253    constr:    0.0000
     atom:    8    charge:    3.9852    magn:    0.4594    constr:    0.0000
     atom:    9    charge:    3.9852    magn:    0.4319    constr:    0.0000
     atom:   10    charge:    3.9734    magn:    0.4255    constr:    0.0000
     atom:   11    charge:    3.9729    magn:    0.4251    constr:    0.0000
     atom:   12    charge:    3.9857    magn:    0.4388    constr:    0.0000
     atom:   13    charge:    3.9846    magn:    0.4330    constr:    0.0000
     atom:   14    charge:    3.9734    magn:    0.4253    constr:    0.0000
     atom:   15    charge:    3.9741    magn:    0.4211    constr:    0.0000
     atom:   16    charge:    3.9857    magn:    0.4396    constr:    0.0000
     atom:   17    charge:    3.9847    magn:    0.4401    constr:    0.0000
     atom:   18    charge:    3.9729    magn:    0.4196    constr:    0.0000
     atom:   19    charge:    3.9766    magn:    0.4633    constr:    0.0000
     atom:   20    charge:    3.9845    magn:    0.4629    constr:    0.0000
     atom:   21    charge:    3.9846    magn:    0.4327    constr:    0.0000
     atom:   22    charge:    3.9730    magn:    0.4197    constr:    0.0000
     atom:   23    charge:    3.9740    magn:    0.4208    constr:    0.0000
     atom:   24    charge:    3.9848    magn:    0.4622    constr:    0.0000
     atom:   25    charge:    3.9851    magn:    0.4318    constr:    0.0000
     atom:   26    charge:    3.9737    magn:    0.4265    constr:    0.0000
     atom:   27    charge:    3.9730    magn:    0.4247    constr:    0.0000
     atom:   28    charge:    3.9845    magn:    0.4340    constr:    0.0000
     atom:   29    charge:    3.9851    magn:    0.4319    constr:    0.0000
     atom:   30    charge:    3.9740    magn:    0.4169    constr:    0.0000
     atom:   31    charge:    3.9730    magn:    0.4245    constr:    0.0000
     atom:   32    charge:    3.9851    magn:    0.4343    constr:    0.0000
     atom:   33    charge:    3.9849    magn:    0.4335    constr:    0.0000
     atom:   34    charge:    3.9737    magn:    0.4266    constr:    0.0000
     atom:   35    charge:    3.9729    magn:    0.4308    constr:    0.0000
     atom:   36    charge:    3.9846    magn:    0.4339    constr:    0.0000
     atom:   37    charge:    1.9918    magn:    0.3869    constr:    0.0000

     total cpu time spent up to now is     2128.4 secs

     total energy              =   -3655.65633047 Ry
     Harris-Foulkes estimate   =   -3655.66196412 Ry
     estimated scf accuracy    <       0.10487394 Ry

     total magnetization       =    26.24 Bohr mag/cell
     absolute magnetization    =    30.64 Bohr mag/cell

     iteration # 18     ecut=    44.10 Ry     beta=0.10
     Davidson diagonalization with overlap
     ethr =  2.87E-05,  avg # of iterations =  1.0

     negative rho (up, down):  4.285E-04 3.994E-04
 
     Adding external electric field

     Computed dipole along edir(3) : 
        Dipole               -0.6282 Ry au,         -1.5967 Debye
        Dipole field         -0.0008 Ry au
 
        Potential amp.        0.0535 Ry
        Total length         34.5908 bohr
 
 
     Adding external electric field

     Computed dipole along edir(3) : 
        Dipole               -0.6282 Ry au,         -1.5967 Debye
        Dipole field         -0.0008 Ry au
 
        Potential amp.        0.0535 Ry
        Total length         34.5908 bohr
 
 
     Magnetic moment per site:
     atom:    1    charge:    3.9852    magn:    0.4346    constr:    0.0000
     atom:    2    charge:    3.9727    magn:    0.4199    constr:    0.0000
     atom:    3    charge:    3.9726    magn:    0.4305    constr:    0.0000
     atom:    4    charge:    3.9852    magn:    0.4618    constr:    0.0000
     atom:    5    charge:    3.9848    magn:    0.4336    constr:    0.0000
     atom:    6    charge:    3.9727    magn:    0.4200    constr:    0.0000
     atom:    7    charge:    3.9726    magn:    0.4252    constr:    0.0000
     atom:    8    charge:    3.9854    magn:    0.4612    constr:    0.0000
     atom:    9    charge:    3.9848    magn:    0.4338    constr:    0.0000
     atom:   10    charge:    3.9732    magn:    0.4251    constr:    0.0000
     atom:   11    charge:    3.9726    magn:    0.4250    constr:    0.0000
     atom:   12    charge:    3.9858    magn:    0.4409    constr:    0.0000
     atom:   13    charge:    3.9851    magn:    0.4345    constr:    0.0000
     atom:   14    charge:    3.9732    magn:    0.4250    constr:    0.0000
     atom:   15    charge:    3.9732    magn:    0.4221    constr:    0.0000
     atom:   16    charge:    3.9857    magn:    0.4418    constr:    0.0000
     atom:   17    charge:    3.9831    magn:    0.4432    constr:    0.0000
[...]
     6.5758   6.6001   6.6270   6.6522   6.6646   6.7884   6.8327   7.0250
     7.0728   7.1089   7.1949   7.3543   7.5945   7.6610   7.8812   7.8941
     7.9204   7.9888   8.0484   8.1163   8.2897   8.3310   8.4194   8.4946
     8.5995   8.6663   8.7957   8.8354   8.9622   9.0130   9.0253   9.1217
     9.2253   9.5122   9.5331   9.5537   9.6536   9.7712   9.7923   9.8205
     9.8611   9.8964   9.9145

 ------ SPIN DOWN ----------


          k = 0.0000 0.0000 0.0000 ( 50455 PWs)   bands (ev):

   -18.3763  -7.3660  -6.1519  -6.0669  -5.2131  -5.0478  -4.7808  -4.7054
    -4.6679  -4.4753  -4.0585  -4.0543  -3.9338  -3.9279  -3.8197  -3.6890
    -3.4851  -3.4109  -3.2447  -3.2294  -3.0604  -2.9666  -2.8348  -2.7735
    -2.7431  -2.7385  -2.7344  -2.5554  -2.5455  -2.5315  -2.5177  -2.4677
    -2.4561  -2.4210  -2.4191  -2.4013  -2.3793  -2.3372  -2.3269  -2.2834
    -2.2701  -2.1994  -2.1959  -2.1457  -2.1281  -2.0944  -2.0667  -2.0027
    -1.9690  -1.9499  -1.9485  -1.8889  -1.8870  -1.8807  -1.8079  -1.7929
    -1.7471  -1.7020  -1.6318  -1.6275  -1.6130  -1.5537  -1.5237  -1.4703
    -1.4531  -1.4518  -1.3955  -1.3839  -1.3821  -1.3764  -1.3585  -1.3422
    -1.3245  -1.3192  -1.2945  -1.2825  -1.2645  -1.2317  -1.2094  -1.2008
    -1.1718  -1.1309  -1.0659  -1.0361  -1.0148  -1.0144  -0.9958  -0.9888
    -0.9834  -0.9757  -0.9719  -0.9451  -0.9349  -0.9108  -0.9091  -0.9043
    -0.8655  -0.8454  -0.8313  -0.8012  -0.7815  -0.7450  -0.6806  -0.6764
    -0.6691  -0.6559  -0.6487  -0.6423  -0.6390  -0.6077  -0.5821  -0.5816
    -0.5362  -0.5300  -0.4923  -0.4773  -0.4159  -0.4061  -0.3996  -0.3834
    -0.3792  -0.3736  -0.3557  -0.3374  -0.3099  -0.3018  -0.2241  -0.2210
    -0.2146  -0.1728  -0.1663  -0.1553  -0.1314  -0.1231  -0.1083  -0.0827
    -0.0703  -0.0315  -0.0213   0.0062   0.0176   0.0234   0.0455   0.0837
     0.0897   0.0978   0.1102   0.1116   0.1287   0.1381   0.1525   0.1617
     0.1890   0.2268   0.2282   0.2561   0.2634   0.2680   0.2752   0.2889
     0.3057   0.3262   0.3343   0.3397   0.3470   0.3700   0.3957   0.4033
     0.4228   0.4357   0.4456   0.4500   0.4519   0.4558   0.4603   0.4720
     0.4745   0.4848   0.4951   0.5025   0.5087   0.5123   0.5299   0.5365
     0.5562   0.5608   0.5958   0.6178   0.6296   0.6308   0.6703   0.6756
     0.7366   0.7799   0.7936   0.8157   0.8503   0.9571   1.0138   1.0400
     1.3547   1.4865   1.6328   1.9512   2.0818   2.0909   2.4136   2.8677
     2.8985   3.0740   3.1572   3.2336   3.2543   3.3462   3.4516   3.4741
     3.8475   3.8869   4.2191   4.3232   4.3697   4.4726   4.5251   5.0600
     5.2171   5.2214   5.4562   5.4880   5.5187   5.5347   5.7365   5.8630
     5.8979   5.9526   6.1298   6.2570   6.4084   6.4436   6.6933   6.6989
     6.7057   6.7470   6.7618   6.7651   6.9258   7.0821   7.4233   7.5278
     7.6714   7.7129   7.8174   7.9081   7.9282   7.9707   7.9863   8.0128
     8.0709   8.0873   8.0921   8.1130   8.1284   8.1968   8.3878   8.5795
     8.6185   8.6941   8.7268   8.7641   8.7681   8.8229   8.8588   8.9274
     8.9725   9.1021   9.1287   9.1823   9.2395   9.2717   9.4219   9.5348
     9.5398   9.5689   9.6280

          k = 0.0000 0.0541 0.0000 ( 50496 PWs)   bands (ev):

   -18.3762  -6.9314  -6.5005  -6.0928  -5.7115  -5.0868  -4.9107  -4.6953
    -4.5579  -4.2429  -4.1114  -3.9897  -3.8642  -3.6672  -3.6064  -3.4761
    -3.4105  -3.3036  -3.2024  -3.1792  -3.1566  -3.0415  -3.0197  -2.9682
    -2.8991  -2.8692  -2.6952  -2.6749  -2.6562  -2.6051  -2.5840  -2.5640
    -2.5313  -2.4920  -2.4351  -2.3420  -2.3386  -2.2953  -2.2686  -2.2425
    -2.2139  -2.1965  -2.1627  -2.1105  -2.0977  -2.0802  -2.0400  -2.0006
    -1.9712  -1.9304  -1.8792  -1.8536  -1.8482  -1.8242  -1.8077  -1.7680
    -1.7247  -1.6857  -1.6650  -1.6516  -1.6295  -1.5991  -1.5749  -1.5594
    -1.5495  -1.5236  -1.5077  -1.4574  -1.4008  -1.3916  -1.3596  -1.3455
    -1.3334  -1.3040  -1.2923  -1.2854  -1.2621  -1.2383  -1.2232  -1.1791
    -1.1628  -1.1455  -1.1284  -1.1099  -1.1056  -1.0783  -1.0709  -1.0559
    -1.0231  -0.9971  -0.9836  -0.9687  -0.9457  -0.9347  -0.9129  -0.8985
    -0.8847  -0.8656  -0.8505  -0.8292  -0.7867  -0.7629  -0.7428  -0.7077
    -0.6901  -0.6473  -0.6276  -0.6191  -0.6112  -0.5816  -0.5759  -0.5598
    -0.5457  -0.5063  -0.4878  -0.4617  -0.4428  -0.4366  -0.4241  -0.4082
    -0.3920  -0.3853  -0.3750  -0.3577  -0.3385  -0.3301  -0.3199  -0.3020
    -0.2814  -0.2614  -0.2364  -0.2050  -0.1710  -0.1359  -0.1307  -0.1093
    -0.1052  -0.0921  -0.0702  -0.0150   0.0046   0.0200   0.0372   0.0686
     0.0822   0.0991   0.1169   0.1297   0.1456   0.1606   0.1819   0.1941
     0.2010   0.2190   0.2373   0.2465   0.2626   0.2778   0.3008   0.3201
     0.3306   0.3544   0.3563   0.3656   0.3765   0.3866   0.3985   0.4009
     0.4067   0.4248   0.4349   0.4449   0.4550   0.4613   0.4722   0.5092
     0.5381   0.5654   0.5733   0.5873   0.5963   0.6112   0.6232   0.6408
     0.6545   0.6701   0.6825   0.6924   0.7013   0.7112   0.7193   0.7381
     0.7903   0.8712   1.0525   1.2208   1.2722   1.2976   1.3418   1.4118
     1.5873   1.7195   1.9438   2.0069   2.0622   2.2751   2.3660   2.5398
     2.7182   2.8199   3.0090   3.1236   3.2476   3.3343   3.6011   3.7192
     3.8387   3.9224   3.9853   4.2013   4.3141   4.4780   4.5204   4.6338
     4.7715   4.8455   5.0818   5.1327   5.2992   5.5014   5.5445   5.6440
     5.8452   5.9129   5.9753   6.0415   6.2182   6.3340   6.4813   6.5610
     6.5976   6.6332   6.7509   6.7866   6.8336   6.9629   7.0790   7.1881
     7.2697   7.3309   7.4032   7.5719   7.6042   7.7043   7.8993   8.0004
     8.0349   8.1302   8.1584   8.2077   8.2908   8.3713   8.3822   8.4876
     8.6867   8.7830   8.8818   8.9591   8.9822   9.0016   9.0595   9.0800
     9.1308   9.1863   9.2758   9.3802   9.4023   9.4309   9.5089   9.5248
     9.6233   9.6942   9.7578

          k = 0.0255 0.0180 0.0000 ( 50428 PWs)   bands (ev):

   -18.3763  -7.2250  -6.7796  -5.3035  -5.1720  -4.9597  -4.8126  -4.7192
    -4.6630  -4.4921  -4.3420  -4.3171  -4.1918  -3.9610  -3.5195  -3.5046
    -3.4028  -3.2037  -3.1853  -3.1657  -3.1421  -3.0823  -3.0444  -2.9763
    -2.8776  -2.8764  -2.6836  -2.5310  -2.5191  -2.5074  -2.4767  -2.4515
    -2.4455  -2.3935  -2.3851  -2.3691  -2.3603  -2.2860  -2.2503  -2.2324
    -2.2041  -2.1860  -2.1198  -2.1046  -2.0978  -2.0870  -2.0327  -2.0238
    -1.9967  -1.9816  -1.9380  -1.9202  -1.8729  -1.8705  -1.8546  -1.8015
    -1.7853  -1.7708  -1.7400  -1.6877  -1.6225  -1.5592  -1.5430  -1.5046
    -1.4587  -1.4410  -1.4064  -1.3898  -1.3872  -1.3857  -1.3607  -1.3481
    -1.2964  -1.2839  -1.2786  -1.2609  -1.2487  -1.2434  -1.2168  -1.2053
    -1.1953  -1.1534  -1.1450  -1.0291  -0.9858  -0.9797  -0.9537  -0.9530
    -0.9184  -0.9100  -0.9083  -0.8975  -0.8718  -0.8696  -0.8679  -0.8586
    -0.8457  -0.8341  -0.8169  -0.8049  -0.7975  -0.7828  -0.7593  -0.7539
    -0.7173  -0.6804  -0.6741  -0.6601  -0.6486  -0.6334  -0.5832  -0.5644
    -0.5242  -0.5072  -0.4923  -0.4769  -0.4682  -0.4330  -0.4270  -0.3611
    -0.3564  -0.3529  -0.3425  -0.3300  -0.3242  -0.3120  -0.2692  -0.2453
    -0.2424  -0.2388  -0.1985  -0.1971  -0.1746  -0.1415  -0.1032  -0.0957
    -0.0710  -0.0633  -0.0447   0.0004   0.0224   0.0532   0.0754   0.0845
     0.1054   0.1280   0.1447   0.1481   0.1573   0.1618   0.1707   0.1842
     0.1892   0.2343   0.2359   0.2503   0.2597   0.2642   0.2798   0.3047
     0.3159   0.3392   0.3430   0.3461   0.3738   0.3771   0.3918   0.3957
     0.4101   0.4256   0.4304   0.4330   0.4378   0.4468   0.4550   0.4627
     0.4769   0.4793   0.4867   0.5115   0.5294   0.5338   0.5441   0.5773
     0.6057   0.6178   0.6338   0.6581   0.6855   0.7063   0.7193   0.7231
     0.7337   0.7637   0.7893   0.8511   0.8981   0.9616   1.0833   1.1487
     1.2044   1.3636   1.4465   1.7127   1.8777   2.0452   2.3703   2.5910
     2.9803   3.0168   3.1810   3.2019   3.3010   3.4095   3.6060   3.7039
     3.7437   3.9038   4.1098   4.3462   4.5914   4.6910   4.7672   4.8421
     5.1330   5.3140   5.3349   5.4654   5.6292   5.6638   5.6826   6.0169
     6.1477   6.1570   6.2464   6.3109   6.3368   6.3896   6.5316   6.6004
     6.6866   6.8740   6.9079   7.1078   7.2672   7.3301   7.3377   7.4099
     7.4690   7.5374   7.6185   7.7087   7.7139   7.7552   7.8520   7.8630
     7.8870   7.9023   8.0828   8.1121   8.1202   8.2184   8.3652   8.3753
     8.4662   8.4829   8.5361   8.5391   8.6910   8.8391   8.8482   8.8514
     8.9850   9.0021   9.1051   9.1265   9.1577   9.2462   9.2847   9.4526
     9.4597   9.5890   9.6586

          k = 0.0255 0.0721 0.0000 ( 50496 PWs)   bands (ev):

   -18.3762  -6.9314  -6.5005  -6.0927  -5.7117  -5.0871  -4.9098  -4.6955
    -4.5582  -4.2431  -4.1112  -3.9899  -3.8639  -3.6673  -3.6062  -3.4762
    -3.4105  -3.3037  -3.2023  -3.1794  -3.1566  -3.0415  -3.0197  -2.9683
    -2.8990  -2.8692  -2.6953  -2.6748  -2.6562  -2.6052  -2.5841  -2.5640
    -2.5312  -2.4918  -2.4354  -2.3422  -2.3384  -2.2952  -2.2686  -2.2425
    -2.2142  -2.1964  -2.1626  -2.1104  -2.0976  -2.0800  -2.0401  -2.0008
    -1.9711  -1.9304  -1.8792  -1.8534  -1.8482  -1.8239  -1.8078  -1.7682
    -1.7247  -1.6858  -1.6649  -1.6518  -1.6294  -1.5991  -1.5748  -1.5595
    -1.5499  -1.5233  -1.5076  -1.4573  -1.4008  -1.3918  -1.3596  -1.3458
    -1.3336  -1.3038  -1.2925  -1.2852  -1.2619  -1.2376  -1.2232  -1.1791
    -1.1629  -1.1454  -1.1284  -1.1096  -1.1061  -1.0785  -1.0709  -1.0563
    -1.0230  -0.9970  -0.9837  -0.9687  -0.9457  -0.9348  -0.9128  -0.8984
    -0.8846  -0.8655  -0.8507  -0.8291  -0.7864  -0.7627  -0.7430  -0.7081
    -0.6901  -0.6472  -0.6278  -0.6190  -0.6115  -0.5817  -0.5758  -0.5598
    -0.5454  -0.5063  -0.4877  -0.4616  -0.4426  -0.4366  -0.4241  -0.4082
    -0.3918  -0.3854  -0.3750  -0.3577  -0.3384  -0.3302  -0.3198  -0.3021
    -0.2814  -0.2615  -0.2364  -0.2051  -0.1711  -0.1359  -0.1305  -0.1092
    -0.1051  -0.0921  -0.0706  -0.0151   0.0047   0.0202   0.0372   0.0686
     0.0820   0.0992   0.1169   0.1298   0.1455   0.1605   0.1819   0.1940
     0.2011   0.2190   0.2372   0.2464   0.2626   0.2780   0.3007   0.3200
     0.3307   0.3543   0.3563   0.3655   0.3766   0.3867   0.3984   0.4009
     0.4069   0.4248   0.4349   0.4449   0.4550   0.4614   0.4722   0.5092
     0.5380   0.5652   0.5734   0.5874   0.5965   0.6111   0.6232   0.6408
     0.6546   0.6701   0.6826   0.6925   0.7013   0.7113   0.7193   0.7380
     0.7904   0.8712   1.0524   1.2208   1.2724   1.2975   1.3420   1.4113
     1.5872   1.7198   1.9436   2.0069   2.0621   2.2755   2.3655   2.5397
     2.7184   2.8198   3.0089   3.1237   3.2477   3.3344   3.6010   3.7192
     3.8390   3.9223   3.9854   4.2012   4.3139   4.4778   4.5204   4.6338
     4.7715   4.8455   5.0819   5.1326   5.2993   5.5014   5.5443   5.6440
     5.8453   5.9129   5.9754   6.0417   6.2183   6.3339   6.4812   6.5611
     6.5979   6.6330   6.7508   6.7864   6.8339   6.9629   7.0790   7.1881
     7.2692   7.3308   7.4034   7.5721   7.6043   7.7041   7.8998   8.0004
     8.0351   8.1301   8.1581   8.2074   8.2905   8.3714   8.3821   8.4876
     8.6869   8.7830   8.8819   8.9591   8.9823   9.0016   9.0598   9.0798
     9.1307   9.1862   9.2762   9.3802   9.4022   9.4310   9.5091   9.5247
     9.6233   9.6944   9.7579

          k = 0.0255-0.0361 0.0000 ( 50488 PWs)   bands (ev):

   -18.3762  -7.0716  -6.2320  -5.8753  -5.8046  -5.1790  -5.1314  -4.8291
    -4.6353  -4.4548  -4.2712  -3.7310  -3.6908  -3.6050  -3.5135  -3.3364
    -3.3276  -3.2792  -3.2567  -3.1998  -3.0189  -2.9740  -2.9531  -2.9249
    -2.8917  -2.8623  -2.7858  -2.7559  -2.6497  -2.6463  -2.5778  -2.5519
    -2.5366  -2.5093  -2.4598  -2.4444  -2.3933  -2.3645  -2.3056  -2.2721
    -2.1855  -2.1561  -2.0911  -2.0867  -2.0720  -2.0573  -2.0310  -2.0212
    -2.0058  -1.9886  -1.9741  -1.9423  -1.9093  -1.8816  -1.7943  -1.7158
    -1.6952  -1.6586  -1.6358  -1.5633  -1.5477  -1.5246  -1.5115  -1.5025
    -1.4665  -1.4509  -1.4397  -1.4193  -1.4105  -1.4017  -1.3898  -1.3815
    -1.3795  -1.3724  -1.3564  -1.3438  -1.3311  -1.3107  -1.2275  -1.1802
    -1.1702  -1.1362  -1.0923  -1.0745  -1.0686  -1.0539  -1.0486  -1.0335
    -1.0262  -0.9959  -0.9739  -0.9531  -0.9526  -0.9217  -0.9118  -0.8749
    -0.8660  -0.8400  -0.8277  -0.8154  -0.8026  -0.7881  -0.7666  -0.7385
    -0.7121  -0.7046  -0.6991  -0.6960  -0.6618  -0.6450  -0.6334  -0.6172
    -0.5572  -0.5518  -0.5321  -0.5017  -0.4657  -0.4420  -0.4324  -0.4218
    -0.4084  -0.3965  -0.3845  -0.3720  -0.3512  -0.2985  -0.2874  -0.2693
    -0.2493  -0.2124  -0.1793  -0.1678  -0.1596  -0.1371  -0.1073  -0.1008
    -0.0818  -0.0610  -0.0413  -0.0111   0.0130   0.0356   0.0555   0.0706
     0.0995   0.1251   0.1296   0.1476   0.1556   0.1597   0.1776   0.1852
     0.2029   0.2068   0.2274   0.2334   0.2577   0.2739   0.2924   0.3130
     0.3296   0.3384   0.3402   0.3474   0.3638   0.3850   0.4009   0.4130
     0.4294   0.4360   0.4412   0.4606   0.4683   0.4752   0.4869   0.4951
     0.5122   0.5150   0.5317   0.5495   0.5675   0.6026   0.6063   0.6341
     0.6659   0.6729   0.6828   0.6925   0.6948   0.7141   0.7524   0.8200
     0.8627   0.9549   1.1644   1.2065   1.2565   1.3344   1.3714   1.4072
     1.5808   1.5965   1.8682   1.9544   2.0623   2.3059   2.4198   2.5236
     2.8471   2.9526   3.0990   3.1193   3.2757   3.3900   3.4551   3.5453
     3.5921   3.6868   3.9241   4.0949   4.2644   4.3770   4.4946   4.5675
     4.7333   5.1613   5.1666   5.2734   5.3266   5.4214   5.5261   5.7730
     5.7823   5.8176   6.0395   6.1314   6.2788   6.3791   6.5442   6.6084
     6.6616   6.6744   6.7682   6.8390   6.8674   6.9452   7.0150   7.0542
     7.1120   7.1536   7.3508   7.4374   7.6678   7.7321   7.9064   7.9537
     8.0828   8.1251   8.1742   8.2376   8.3498   8.3986   8.4700   8.6275
     8.7293   8.8296   8.8394   8.8823   9.0130   9.0724   9.0861   9.1809
     9.2720   9.5402   9.5692   9.6609   9.7249   9.8123   9.8461   9.8718
     9.8880   9.9275   9.9708

     the Fermi energy is     0.4478 ev

!    total energy              =   -3655.85019642 Ry
     Harris-Foulkes estimate   =   -3655.85019130 Ry
     estimated scf accuracy    <       0.00000046 Ry

     The total energy is the sum of the following terms:

     one-electron contribution =  -19126.62651797 Ry
     hartree contribution      =    9942.91255789 Ry
     xc contribution           =   -1513.86293053 Ry
     ewald contribution        =    7041.91277581 Ry
     electric field correction =       0.00002271 Ry
     smearing contrib. (-TS)   =      -0.18610432 Ry

     total magnetization       =    24.35 Bohr mag/cell
     absolute magnetization    =    27.92 Bohr mag/cell

     convergence has been achieved in  18 iterations

     Forces acting on atoms (Ry/au):


     negative rho (up, down):  4.307E-04 3.250E-04
     atom    1 type  1   force =     0.00017701    0.00008659    0.01821990
     atom    2 type  1   force =     0.00062574    0.00423478   -0.01772662
     atom    3 type  1   force =     0.00003582   -0.00008259   -0.00008206
     atom    4 type  1   force =     0.00050780    0.00036326   -0.00007051
     atom    5 type  1   force =     0.00057279   -0.00024990    0.01845319
     atom    6 type  1   force =     0.00429397   -0.00081081   -0.01772418
     atom    7 type  1   force =     0.00031136   -0.00036516   -0.00009315
     atom    8 type  1   force =     0.00051125    0.00014877   -0.00004690
     atom    9 type  1   force =    -0.00003258    0.00062983    0.01841611
     atom   10 type  1   force =    -0.00176882   -0.00125800   -0.01956639
     atom   11 type  1   force =    -0.00017294    0.00044096   -0.00003340
     atom   12 type  1   force =     0.00038708    0.00008698   -0.00027771
     atom   13 type  1   force =    -0.00089960    0.00109260    0.01910798
     atom   14 type  1   force =    -0.00097119   -0.00062708   -0.01918760
     atom   15 type  1   force =     0.00002335    0.00038370   -0.00013166
     atom   16 type  1   force =     0.00026809    0.00046374   -0.00030664
     atom   17 type  1   force =    -0.00006413   -0.00005408    0.02988140
     atom   18 type  1   force =    -0.00232770   -0.00140718   -0.01669741
     atom   19 type  1   force =     0.00001073    0.00024307   -0.00070699
     atom   20 type  1   force =     0.00039045    0.00028405   -0.00030735
     atom   21 type  1   force =     0.00071692   -0.00122789    0.01910452
     atom   22 type  1   force =    -0.00209565   -0.00192563   -0.01678435
     atom   23 type  1   force =     0.00034085   -0.00022474   -0.00008088
     atom   24 type  1   force =     0.00017101   -0.00074820    0.00038290
     atom   25 type  1   force =    -0.00065599   -0.00051024    0.01890637
     atom   26 type  1   force =    -0.00187841    0.00029618   -0.02162264
     atom   27 type  1   force =     0.00054830    0.00002597    0.00001164
     atom   28 type  1   force =     0.00023770    0.00000259   -0.00006110
     atom   29 type  1   force =    -0.00074695   -0.00043264    0.01893355
     atom   30 type  1   force =     0.00211332    0.00143186   -0.02531592
     atom   31 type  1   force =    -0.00008115    0.00060660    0.00007892
     atom   32 type  1   force =     0.00014412    0.00012227    0.00009276
     atom   33 type  1   force =    -0.00093638   -0.00070987    0.01722665
     atom   34 type  1   force =    -0.00037490   -0.00190787   -0.02162766
     atom   35 type  1   force =     0.00048015    0.00020438   -0.00032558
     atom   36 type  1   force =     0.00012141    0.00017566   -0.00004967
     atom   37 type  2   force =     0.00001715    0.00121803    0.00001048

     Total force =     0.085149     Total SCF correction =     0.002612
 !ASE

     Writing output data file calc.save
 
     init_run     :     45.40s CPU     52.16s WALL (       1 calls)
     electrons    :  77645.91s CPU  89957.15s WALL (      20 calls)
     update_pot   :     72.57s CPU     77.57s WALL (      19 calls)
     forces       :   1375.82s CPU   1431.47s WALL (      20 calls)

     Called by init_run:
     wfcinit      :     27.83s CPU     33.53s WALL (       1 calls)
     potinit      :      1.55s CPU      1.72s WALL (       1 calls)

     Called by electrons:
     c_bands      :  47472.67s CPU  56670.90s WALL (     769 calls)
     sum_band     :  20425.96s CPU  22869.35s WALL (     769 calls)
     v_of_rho     :    460.34s CPU    539.50s WALL (     789 calls)
     newd         :   9389.10s CPU   9962.43s WALL (     789 calls)
     mix_rho      :     95.68s CPU    116.21s WALL (     769 calls)

     Called by c_bands:
     init_us_2    :    251.81s CPU    268.61s WALL (   15590 calls)
     cegterg      :  46002.03s CPU  55142.34s WALL (    7690 calls)

     Called by *egterg:
     h_psi        :  27304.64s CPU  34802.55s WALL (   19151 calls)
     s_psi        :   3778.63s CPU   3915.40s WALL (   19151 calls)
     g_psi        :     94.97s CPU     97.19s WALL (   11451 calls)
     cdiaghg      :   4871.91s CPU   5004.03s WALL (   18951 calls)

     Called by h_psi:
     add_vuspsi   :   3818.46s CPU   3943.25s WALL (   19151 calls)

     General routines
     calbec       :   5771.67s CPU   5929.59s WALL (   27041 calls)
     fft          :    437.20s CPU    520.43s WALL (   24639 calls)
     ffts         :      6.18s CPU      8.61s WALL (    3116 calls)
     fftw         :  14885.21s CPU  23544.76s WALL (11431322 calls)
     interpolate  :     56.33s CPU     79.33s WALL (    3116 calls)
     davcio       :      0.03s CPU      0.88s WALL (      10 calls)
 
     Parallel routines
     fft_scatter  :   8146.75s CPU  13686.52s WALL (11459077 calls)
 
     PWSCF        :     0d   22h 2m CPU        1d    1h29m WALL

 
   This run was terminated on:  13:59: 8   6Mar2018            

=------------------------------------------------------------------------------=
   JOB DONE.
=------------------------------------------------------------------------------=
