  python dir          : /home/vossj/suncat/lib/python2.7/site-packages/espresso
  espresso dir        : /home/vossj/suncat/esdld/espresso-dynpy-beef/bin
  pseudo dir          : /home/alatimer/bin/psp/esp_psp_w_gbrvRu/
  ase-espresso py git : ffa2778-git



     Program PWSCF v.5.1rc2 (svn rev. ) starts on 20Apr2017 at 21:10:48 

     This program is part of the open-source Quantum ESPRESSO suite
     for quantum simulation of materials; please cite
         "P. Giannozzi et al., J. Phys.:Condens. Matter 21 395502 (2009);
          URL http://www.quantum-espresso.org", 
     in publications or presentations arising from this work. More details at
     http://www.quantum-espresso.org/quote

     Parallel version (MPI), running on    16 processors
     R & G space division:  proc/nbgrp/npool/nimage =      16
     Reading input from pw.inp
     Message from routine read_cards :
     DEPRECATED: no units specified in CELL_PARAMETERS card

     Current dimensions of program PWSCF are:
     Max number of different atomic species (ntypx) = 10
     Max number of k-points (npk) =  40000
     Max angular momentum in pseudopotentials (lmaxx) =  3
     Presently no symmetry can be used with electric field


     IMPORTANT: XC functional enforced from input :
     Exchange-correlation      = RPBE ( 1  4 28  4 0)
     Any further DFT definition will be discarded
     Please, verify this is what you really want

               file Ni.UPF: wavefunction(s)  3D renormalized

     Subspace diagonalization in iterative solution of the eigenvalue problem:
     a serial algorithm will be used

 
     Parallelization info
     --------------------
     sticks:   dense  smooth     PW     G-vecs:    dense   smooth      PW
     Min         386     154     42                68872    17389    2480
     Max         387     155     43                68885    17439    2491
     Sum        6181    2479    673              1102011   278611   39737
 
     Generating pointlists ...
     new r_m :   0.4125 (alat units)  0.7795 (a.u.) for type    1
     new r_m :   0.4125 (alat units)  0.7795 (a.u.) for type    2
     new r_m :   0.4125 (alat units)  0.7795 (a.u.) for type    3


     bravais-lattice index     =            0
     lattice parameter (alat)  =       1.8897  a.u.
     unit-cell volume          =    7046.4111 (a.u.)^3
     number of atoms/cell      =           45
     number of atomic types    =            3
     number of electrons       =       412.00
     number of Kohn-Sham states=          306
     kinetic-energy cutoff     =      44.0992  Ry
     charge density cutoff     =     440.9919  Ry
     convergence threshold     =      7.3E-07
     mixing beta               =       0.1000
     number of iterations used =           10  plain     mixing
     Exchange-correlation      = RPBE ( 1  4 28  4 0)
     nstep                     =           50


     celldm(1)=   1.889726  celldm(2)=   0.000000  celldm(3)=   0.000000
     celldm(4)=   0.000000  celldm(5)=   0.000000  celldm(6)=   0.000000

     crystal axes: (cart. coord. in units of alat)
               a(1) = (   7.548011   0.000000   0.000000 )  
               a(2) = (  -3.774005   6.536769   0.000000 )  
               a(3) = (   0.000000   0.000000  21.162925 )  

     reciprocal axes: (cart. coord. in units 2 pi/alat)
               b(1) = (  0.132485  0.076490  0.000000 )  
               b(2) = (  0.000000  0.152981  0.000000 )  
               b(3) = (  0.000000  0.000000  0.047252 )  


     PseudoPot. # 1 for Ni read from file:
     /home/alatimer/bin/psp/esp_psp_w_gbrvRu/Ni.UPF
     MD5 check sum: 8b2449ee0060d9c33484ccd47bb60870
     Pseudo is Ultrasoft + core correction, Zval = 10.0
     Generated using "atomic" code by A. Dal Corso  v.5.0.2 svn rev. 9415
     Using radial grid of 1195 points,  6 beta functions with: 
                l(1) =   0
                l(2) =   0
                l(3) =   1
                l(4) =   1
                l(5) =   2
                l(6) =   2
     Q(r) pseudized with 0 coefficients 


     PseudoPot. # 2 for  O read from file:
     /home/alatimer/bin/psp/esp_psp_w_gbrvRu/O.UPF
     MD5 check sum: e057bbcf3229fb5d8c36c0c92f9568b4
     Pseudo is Ultrasoft + core correction, Zval =  6.0
     Generated using "atomic" code by A. Dal Corso  v.5.0.2 svn rev. 9415
     Using radial grid of 1095 points,  4 beta functions with: 
                l(1) =   0
                l(2) =   0
                l(3) =   1
                l(4) =   1
     Q(r) pseudized with 0 coefficients 


     PseudoPot. # 3 for  C read from file:
     /home/alatimer/bin/psp/esp_psp_w_gbrvRu/C.UPF
     MD5 check sum: ab446d787031eba755f1d5ee46644bb0
     Pseudo is Ultrasoft + core correction, Zval =  4.0
     Generated using "atomic" code by A. Dal Corso  v.5.0.2 svn rev. 9415
     Using radial grid of 1073 points,  4 beta functions with: 
                l(1) =   0
                l(2) =   0
                l(3) =   1
                l(4) =   1
     Q(r) pseudized with 0 coefficients 


     atomic species   valence    mass     pseudopotential
        Ni1           10.00    58.69340     Ni( 1.00)
        O1             6.00    15.99940      O( 1.00)
        C1             4.00    12.01100      C( 1.00)

     Starting magnetic structure 
     atomic species   magnetization
        Ni1          0.300
        O1           0.500
        C1           0.750

     No symmetry found



   Cartesian axes

     site n.     atom                  positions (alat units)
         1           Ni1 tau(   1) = (   0.0000000   0.0000000   7.5000000  )
         2           Ni1 tau(   2) = (   1.2580018   0.7263077   9.5543084  )
         3           Ni1 tau(   3) = (   0.0000000   1.4526154  11.6086168  )
         4           Ni1 tau(   4) = (   1.2580018   2.1789231  13.6629252  )
         5           Ni1 tau(   5) = (  -1.2580018   2.1789231   7.5000000  )
         6           Ni1 tau(   6) = (   0.0000000   2.9052308   9.5543084  )
         7           Ni1 tau(   7) = (  -1.2580018   3.6315385  11.6086168  )
         8           Ni1 tau(   8) = (  -0.0000000   4.3578462  13.6629252  )
         9           Ni1 tau(   9) = (  -2.5160037   4.3578462   7.5000000  )
        10           Ni1 tau(  10) = (  -1.2580018   5.0841539   9.5543084  )
        11           Ni1 tau(  11) = (  -2.5160037   5.8104616  11.6086168  )
        12           Ni1 tau(  12) = (  -1.2580018   6.5367693  13.6629252  )
        13           Ni1 tau(  13) = (   2.5160037   0.0000000   7.5000000  )
        14           Ni1 tau(  14) = (   3.7740055   0.7263077   9.5543084  )
        15           Ni1 tau(  15) = (   2.5160037   1.4526154  11.6086168  )
        16           Ni1 tau(  16) = (   3.7740055   2.1789231  13.6629252  )
        17           Ni1 tau(  17) = (   1.2580018   2.1789231   7.5000000  )
        18           Ni1 tau(  18) = (   2.5160037   2.9052308   9.5543084  )
        19           Ni1 tau(  19) = (   1.2580018   3.6315385  11.6086168  )
        20           Ni1 tau(  20) = (   2.5160037   4.3578462  13.6629252  )
        21           Ni1 tau(  21) = (  -0.0000000   4.3578462   7.5000000  )
        22           Ni1 tau(  22) = (   1.2580018   5.0841539   9.5543084  )
        23           Ni1 tau(  23) = (  -0.0000000   5.8104616  11.6086168  )
        24           Ni1 tau(  24) = (   1.2580018   6.5367693  13.6629252  )
        25           Ni1 tau(  25) = (   5.0320073   0.0000000   7.5000000  )
        26           Ni1 tau(  26) = (   6.2900092   0.7263077   9.5543084  )
        27           Ni1 tau(  27) = (   5.0320073   1.4526154  11.6086168  )
        28           Ni1 tau(  28) = (   6.2900092   2.1789231  13.6629252  )
        29           Ni1 tau(  29) = (   3.7740055   2.1789231   7.5000000  )
        30           Ni1 tau(  30) = (   5.0320073   2.9052308   9.5543084  )
        31           Ni1 tau(  31) = (   3.7740055   3.6315385  11.6086168  )
        32           Ni1 tau(  32) = (   5.0320073   4.3578462  13.6629252  )
        33           Ni1 tau(  33) = (   2.5160037   4.3578462   7.5000000  )
        34           Ni1 tau(  34) = (   3.7740055   5.0841539   9.5543084  )
        35           Ni1 tau(  35) = (   2.5160037   5.8104616  11.6086168  )
        36           Ni1 tau(  36) = (   3.7740055   6.5367693  13.6629252  )
        37           O1  tau(  37) = (   2.4935804   5.7277866  14.8463543  )
        38           O1  tau(  38) = (   0.0203265   5.7554212  14.8463543  )
        39           O1  tau(  39) = (   2.4363302   1.3975750  14.8463543  )
        40           O1  tau(  40) = (   4.9523338   1.3975750  14.8463543  )
        41           O1  tau(  41) = (  -0.0796735   1.3975750  14.8463543  )
        42           O1  tau(  42) = (  -2.5956772   5.7554212  14.8463543  )
        43           O1  tau(  43) = (   3.6943320   3.5764981  14.8463543  )
        44           O1  tau(  44) = (  -1.3376753   3.5764981  14.8463543  )
        45           C1  tau(  45) = (   1.2580018   3.5789231  14.9629252  )

     number of k points=    10  Fermi-Dirac smearing, width (Ry)=  0.0073
                       cart. coord. in units 2pi/alat
        k(    1) = (   0.0000000   0.0000000   0.0000000), wk =   0.1111111
        k(    2) = (   0.0000000   0.0509936   0.0000000), wk =   0.2222222
        k(    3) = (   0.0441617   0.0254968   0.0000000), wk =   0.2222222
        k(    4) = (   0.0441617   0.0764904   0.0000000), wk =   0.2222222
        k(    5) = (   0.0441617  -0.0254968   0.0000000), wk =   0.2222222
        k(    6) = (   0.0000000   0.0000000   0.0000000), wk =   0.1111111
        k(    7) = (   0.0000000   0.0509936   0.0000000), wk =   0.2222222
        k(    8) = (   0.0441617   0.0254968   0.0000000), wk =   0.2222222
        k(    9) = (   0.0441617   0.0764904   0.0000000), wk =   0.2222222
        k(   10) = (   0.0441617  -0.0254968   0.0000000), wk =   0.2222222

     Dense  grid:  1102011 G-vectors     FFT dimensions: (  96,  96, 270)

     Smooth grid:   278611 G-vectors     FFT dimensions: (  64,  64, 180)

     Largest allocated arrays     est. size (Mb)     dimensions
        Kohn-Sham Wavefunctions        10.19 Mb     (    2183,  306)
        NL pseudopotentials            23.98 Mb     (    2183,  720)
        Each V/rho on FFT grid          4.78 Mb     (  156672,   2)
        Each G-vector array             0.53 Mb     (   68874)
        G-vector shells                 0.19 Mb     (   24563)
     Largest temporary arrays     est. size (Mb)     dimensions
        Auxiliary wavefunctions        40.77 Mb     (    2183, 1224)
        Each subspace H/S matrix       22.86 Mb     (    1224, 1224)
        Each <psi_i|beta_j> matrix      3.36 Mb     (     720,  306)
        Arrays for rho mixing          23.91 Mb     (  156672,   10)

     Check: negative/imaginary core charge=   -0.000010    0.000000

     Initial potential from superposition of free atoms
     Check: negative starting charge=(component1):   -0.000453
     Check: negative starting charge=(component2):   -0.000216

     starting charge  411.99091, renormalised to  412.00000

     negative rho (up, down):  4.534E-04 2.161E-04
 
     Adding external electric field

     Computed dipole along edir(3) : 
        Dipole               -0.0088 Ry au,         -0.0224 Debye
        Dipole field         -0.0000 Ry au
 
        Potential amp.        0.0012 Ry
        Total length         38.9923 bohr
 
 
     Adding external electric field

     Computed dipole along edir(3) : 
        Dipole               -0.0088 Ry au,         -0.0224 Debye
        Dipole field         -0.0000 Ry au
 
        Potential amp.        0.0012 Ry
        Total length         38.9923 bohr
 
     Starting wfc are  360 randomized atomic wfcs

     total cpu time spent up to now is       35.9 secs

     Self-consistent Calculation

     iteration #  1     ecut=    44.10 Ry     beta=0.10
     Davidson diagonalization with overlap
     ethr =  1.00E-02,  avg # of iterations =  6.8

     negative rho (up, down):  4.204E-04 1.969E-04
 
     Adding external electric field

     Computed dipole along edir(3) : 
        Dipole               -0.1322 Ry au,         -0.3361 Debye
        Dipole field         -0.0002 Ry au
 
        Potential amp.        0.0184 Ry
        Total length         38.9923 bohr
 
 
     Adding external electric field

     Computed dipole along edir(3) : 
        Dipole               -0.1322 Ry au,         -0.3361 Debye
        Dipole field         -0.0002 Ry au
 
        Potential amp.        0.0184 Ry
        Total length         38.9923 bohr
 
 
     Magnetic moment per site:
     atom:    1    charge:    3.9499    magn:    1.1253    constr:    0.0000
     atom:    2    charge:    3.9698    magn:    1.1094    constr:    0.0000
     atom:    3    charge:    3.9719    magn:    1.1078    constr:    0.0000
     atom:    4    charge:    3.9390    magn:    1.1311    constr:    0.0000
     atom:    5    charge:    3.9495    magn:    1.1255    constr:    0.0000
     atom:    6    charge:    3.9698    magn:    1.1094    constr:    0.0000
     atom:    7    charge:    3.9718    magn:    1.1080    constr:    0.0000
     atom:    8    charge:    3.9388    magn:    1.1334    constr:    0.0000
     atom:    9    charge:    3.9498    magn:    1.1253    constr:    0.0000
     atom:   10    charge:    3.9698    magn:    1.1095    constr:    0.0000
     atom:   11    charge:    3.9709    magn:    1.1084    constr:    0.0000
     atom:   12    charge:    3.9352    magn:    1.1534    constr:    0.0000
     atom:   13    charge:    3.9499    magn:    1.1253    constr:    0.0000
     atom:   14    charge:    3.9695    magn:    1.1097    constr:    0.0000
     atom:   15    charge:    3.9717    magn:    1.1080    constr:    0.0000
     atom:   16    charge:    3.9374    magn:    1.1536    constr:    0.0000
     atom:   17    charge:    3.9495    magn:    1.1254    constr:    0.0000
     atom:   18    charge:    3.9697    magn:    1.1096    constr:    0.0000
     atom:   19    charge:    3.9716    magn:    1.1075    constr:    0.0000
     atom:   20    charge:    3.9369    magn:    1.1366    constr:    0.0000
     atom:   21    charge:    3.9496    magn:    1.1254    constr:    0.0000
     atom:   22    charge:    3.9698    magn:    1.1094    constr:    0.0000
     atom:   23    charge:    3.9717    magn:    1.1079    constr:    0.0000
     atom:   24    charge:    3.9375    magn:    1.1537    constr:    0.0000
     atom:   25    charge:    3.9495    magn:    1.1255    constr:    0.0000
     atom:   26    charge:    3.9696    magn:    1.1096    constr:    0.0000
     atom:   27    charge:    3.9709    magn:    1.1082    constr:    0.0000
     atom:   28    charge:    3.9375    magn:    1.1535    constr:    0.0000
     atom:   29    charge:    3.9495    magn:    1.1255    constr:    0.0000
     atom:   30    charge:    3.9697    magn:    1.1096    constr:    0.0000
     atom:   31    charge:    3.9718    magn:    1.1080    constr:    0.0000
     atom:   32    charge:    3.9345    magn:    1.1550    constr:    0.0000
     atom:   33    charge:    3.9496    magn:    1.1253    constr:    0.0000
     atom:   34    charge:    3.9698    magn:    1.1094    constr:    0.0000
     atom:   35    charge:    3.9718    magn:    1.1079    constr:    0.0000
     atom:   36    charge:    3.9343    magn:    1.1554    constr:    0.0000
     atom:   37    charge:    2.0195    magn:    0.9469    constr:    0.0000
     atom:   38    charge:    2.0192    magn:    0.9464    constr:    0.0000
     atom:   39    charge:    2.0208    magn:    0.9473    constr:    0.0000
     atom:   40    charge:    2.0225    magn:    0.9481    constr:    0.0000
     atom:   41    charge:    2.0214    magn:    0.9478    constr:    0.0000
     atom:   42    charge:    2.0222    magn:    0.9483    constr:    0.0000
     atom:   43    charge:    2.0215    magn:    0.9479    constr:    0.0000
     atom:   44    charge:    2.0214    magn:    0.9477    constr:    0.0000
     atom:   45    charge:    0.5640    magn:    0.3963    constr:    0.0000

     total cpu time spent up to now is      174.5 secs

     total energy              =   -3899.75273679 Ry
     Harris-Foulkes estimate   =   -3900.53036173 Ry
     estimated scf accuracy    <      10.65806484 Ry

     total magnetization       =    46.50 Bohr mag/cell
     absolute magnetization    =    46.83 Bohr mag/cell

     iteration #  2     ecut=    44.10 Ry     beta=0.10
     Davidson diagonalization with overlap
     ethr =  2.59E-03,  avg # of iterations =  2.9

     negative rho (up, down):  4.210E-04 2.325E-04
 
     Adding external electric field

     Computed dipole along edir(3) : 
        Dipole               -1.2414 Ry au,         -3.1552 Debye
        Dipole field         -0.0022 Ry au
 
        Potential amp.        0.1726 Ry
        Total length         38.9923 bohr
 
 
     Adding external electric field

     Computed dipole along edir(3) : 
        Dipole               -1.2414 Ry au,         -3.1552 Debye
        Dipole field         -0.0022 Ry au
 
        Potential amp.        0.1726 Ry
        Total length         38.9923 bohr
 
 
     Magnetic moment per site:
     atom:    1    charge:    3.9608    magn:    1.1055    constr:    0.0000
     atom:    2    charge:    3.9555    magn:    1.1090    constr:    0.0000
     atom:    3    charge:    3.9616    magn:    1.1035    constr:    0.0000
     atom:    4    charge:    3.9513    magn:    1.1139    constr:    0.0000
     atom:    5    charge:    3.9606    magn:    1.1057    constr:    0.0000
     atom:    6    charge:    3.9556    magn:    1.1090    constr:    0.0000
     atom:    7    charge:    3.9616    magn:    1.1036    constr:    0.0000
     atom:    8    charge:    3.9510    magn:    1.1162    constr:    0.0000
     atom:    9    charge:    3.9608    magn:    1.1055    constr:    0.0000
     atom:   10    charge:    3.9555    magn:    1.1091    constr:    0.0000
     atom:   11    charge:    3.9612    magn:    1.1038    constr:    0.0000
     atom:   12    charge:    3.9471    magn:    1.1364    constr:    0.0000
     atom:   13    charge:    3.9609    magn:    1.1055    constr:    0.0000
     atom:   14    charge:    3.9554    magn:    1.1092    constr:    0.0000
     atom:   15    charge:    3.9615    magn:    1.1036    constr:    0.0000
     atom:   16    charge:    3.9481    magn:    1.1378    constr:    0.0000
     atom:   17    charge:    3.9606    magn:    1.1055    constr:    0.0000
     atom:   18    charge:    3.9555    magn:    1.1091    constr:    0.0000
     atom:   19    charge:    3.9616    magn:    1.1034    constr:    0.0000
     atom:   20    charge:    3.9491    magn:    1.1197    constr:    0.0000
     atom:   21    charge:    3.9606    magn:    1.1055    constr:    0.0000
     atom:   22    charge:    3.9556    magn:    1.1090    constr:    0.0000
     atom:   23    charge:    3.9615    magn:    1.1037    constr:    0.0000
     atom:   24    charge:    3.9479    magn:    1.1381    constr:    0.0000
     atom:   25    charge:    3.9606    magn:    1.1056    constr:    0.0000
     atom:   26    charge:    3.9554    magn:    1.1092    constr:    0.0000
     atom:   27    charge:    3.9609    magn:    1.1038    constr:    0.0000
     atom:   28    charge:    3.9479    magn:    1.1379    constr:    0.0000
     atom:   29    charge:    3.9606    magn:    1.1056    constr:    0.0000
     atom:   30    charge:    3.9554    magn:    1.1092    constr:    0.0000
     atom:   31    charge:    3.9617    magn:    1.1035    constr:    0.0000
     atom:   32    charge:    3.9463    magn:    1.1383    constr:    0.0000
     atom:   33    charge:    3.9607    magn:    1.1055    constr:    0.0000
     atom:   34    charge:    3.9555    magn:    1.1090    constr:    0.0000
     atom:   35    charge:    3.9617    magn:    1.1035    constr:    0.0000
     atom:   36    charge:    3.9460    magn:    1.1388    constr:    0.0000
     atom:   37    charge:    2.0254    magn:    0.9340    constr:    0.0000
     atom:   38    charge:    2.0252    magn:    0.9333    constr:    0.0000
     atom:   39    charge:    2.0268    magn:    0.9342    constr:    0.0000
     atom:   40    charge:    2.0276    magn:    0.9355    constr:    0.0000
     atom:   41    charge:    2.0273    magn:    0.9348    constr:    0.0000
     atom:   42    charge:    2.0276    magn:    0.9355    constr:    0.0000
     atom:   43    charge:    2.0275    magn:    0.9349    constr:    0.0000
     atom:   44    charge:    2.0273    magn:    0.9347    constr:    0.0000
     atom:   45    charge:    0.5695    magn:    0.3954    constr:    0.0000

     total cpu time spent up to now is      258.9 secs

     total energy              =   -3899.42327498 Ry
     Harris-Foulkes estimate   =   -3902.44923938 Ry
     estimated scf accuracy    <      75.71170581 Ry

     total magnetization       =    52.08 Bohr mag/cell
     absolute magnetization    =    53.03 Bohr mag/cell

     iteration #  3     ecut=    44.10 Ry     beta=0.10
     Davidson diagonalization with overlap
     ethr =  2.59E-03,  avg # of iterations =  1.7

     negative rho (up, down):  4.302E-04 2.872E-04
 
     Adding external electric field

     Computed dipole along edir(3) : 
        Dipole               -0.5584 Ry au,         -1.4193 Debye
        Dipole field         -0.0010 Ry au
 
        Potential amp.        0.0777 Ry
        Total length         38.9923 bohr
 
 
     Adding external electric field

     Computed dipole along edir(3) : 
        Dipole               -0.5584 Ry au,         -1.4193 Debye
        Dipole field         -0.0010 Ry au
 
        Potential amp.        0.0777 Ry
        Total length         38.9923 bohr
 
 
     Magnetic moment per site:
     atom:    1    charge:    3.9651    magn:    1.0969    constr:    0.0000
     atom:    2    charge:    3.9564    magn:    1.1031    constr:    0.0000
     atom:    3    charge:    3.9589    magn:    1.1007    constr:    0.0000
     atom:    4    charge:    3.9503    magn:    1.1093    constr:    0.0000
     atom:    5    charge:    3.9649    magn:    1.0971    constr:    0.0000
     atom:    6    charge:    3.9564    magn:    1.1031    constr:    0.0000
     atom:    7    charge:    3.9589    magn:    1.1008    constr:    0.0000
     atom:    8    charge:    3.9500    magn:    1.1119    constr:    0.0000
     atom:    9    charge:    3.9651    magn:    1.0969    constr:    0.0000
     atom:   10    charge:    3.9564    magn:    1.1031    constr:    0.0000
     atom:   11    charge:    3.9586    magn:    1.1009    constr:    0.0000
     atom:   12    charge:    3.9465    magn:    1.1334    constr:    0.0000
     atom:   13    charge:    3.9651    magn:    1.0969    constr:    0.0000
     atom:   14    charge:    3.9562    magn:    1.1033    constr:    0.0000
     atom:   15    charge:    3.9588    magn:    1.1009    constr:    0.0000
     atom:   16    charge:    3.9474    magn:    1.1350    constr:    0.0000
     atom:   17    charge:    3.9649    magn:    1.0969    constr:    0.0000
     atom:   18    charge:    3.9564    magn:    1.1032    constr:    0.0000
     atom:   19    charge:    3.9588    magn:    1.1006    constr:    0.0000
     atom:   20    charge:    3.9484    magn:    1.1153    constr:    0.0000
     atom:   21    charge:    3.9649    magn:    1.0969    constr:    0.0000
     atom:   22    charge:    3.9564    magn:    1.1031    constr:    0.0000
     atom:   23    charge:    3.9587    magn:    1.1009    constr:    0.0000
     atom:   24    charge:    3.9472    magn:    1.1353    constr:    0.0000
     atom:   25    charge:    3.9649    magn:    1.0971    constr:    0.0000
     atom:   26    charge:    3.9562    magn:    1.1033    constr:    0.0000
     atom:   27    charge:    3.9583    magn:    1.1009    constr:    0.0000
     atom:   28    charge:    3.9472    magn:    1.1351    constr:    0.0000
     atom:   29    charge:    3.9649    magn:    1.0971    constr:    0.0000
     atom:   30    charge:    3.9563    magn:    1.1033    constr:    0.0000
     atom:   31    charge:    3.9590    magn:    1.1007    constr:    0.0000
     atom:   32    charge:    3.9458    magn:    1.1353    constr:    0.0000
     atom:   33    charge:    3.9650    magn:    1.0969    constr:    0.0000
     atom:   34    charge:    3.9564    magn:    1.1031    constr:    0.0000
     atom:   35    charge:    3.9590    magn:    1.1007    constr:    0.0000
     atom:   36    charge:    3.9455    magn:    1.1358    constr:    0.0000
     atom:   37    charge:    2.0260    magn:    0.9296    constr:    0.0000
     atom:   38    charge:    2.0258    magn:    0.9288    constr:    0.0000
     atom:   39    charge:    2.0274    magn:    0.9297    constr:    0.0000
     atom:   40    charge:    2.0282    magn:    0.9313    constr:    0.0000
     atom:   41    charge:    2.0279    magn:    0.9304    constr:    0.0000
     atom:   42    charge:    2.0282    magn:    0.9313    constr:    0.0000
     atom:   43    charge:    2.0281    magn:    0.9305    constr:    0.0000
     atom:   44    charge:    2.0279    magn:    0.9303    constr:    0.0000
     atom:   45    charge:    0.5693    magn:    0.3936    constr:    0.0000

     total cpu time spent up to now is      337.5 secs

     total energy              =   -3900.44427666 Ry
     Harris-Foulkes estimate   =   -3901.21942257 Ry
     estimated scf accuracy    <      55.74699455 Ry

     total magnetization       =    46.86 Bohr mag/cell
     absolute magnetization    =    47.09 Bohr mag/cell

     iteration #  4     ecut=    44.10 Ry     beta=0.10
     Davidson diagonalization with overlap
     ethr =  2.59E-03,  avg # of iterations =  1.0

     negative rho (up, down):  4.256E-04 2.474E-04
 
     Adding external electric field

     Computed dipole along edir(3) : 
        Dipole               -1.3089 Ry au,         -3.3268 Debye
        Dipole field         -0.0023 Ry au
 
        Potential amp.        0.1820 Ry
        Total length         38.9923 bohr
 
 
     Adding external electric field

     Computed dipole along edir(3) : 
        Dipole               -1.3089 Ry au,         -3.3268 Debye
        Dipole field         -0.0023 Ry au
 
        Potential amp.        0.1820 Ry
        Total length         38.9923 bohr
 
 
     Magnetic moment per site:
     atom:    1    charge:    3.9726    magn:    1.0130    constr:    0.0000
     atom:    2    charge:    3.9654    magn:    1.0140    constr:    0.0000
     atom:    3    charge:    3.9556    magn:    1.0206    constr:    0.0000
     atom:    4    charge:    3.9585    magn:    1.0218    constr:    0.0000
     atom:    5    charge:    3.9731    magn:    1.0126    constr:    0.0000
     atom:    6    charge:    3.9653    magn:    1.0142    constr:    0.0000
     atom:    7    charge:    3.9556    magn:    1.0208    constr:    0.0000
     atom:    8    charge:    3.9586    magn:    1.0276    constr:    0.0000
     atom:    9    charge:    3.9726    magn:    1.0130    constr:    0.0000
     atom:   10    charge:    3.9654    magn:    1.0141    constr:    0.0000
     atom:   11    charge:    3.9561    magn:    1.0197    constr:    0.0000
     atom:   12    charge:    3.9573    magn:    1.0675    constr:    0.0000
     atom:   13    charge:    3.9725    magn:    1.0131    constr:    0.0000
     atom:   14    charge:    3.9654    magn:    1.0142    constr:    0.0000
     atom:   15    charge:    3.9556    magn:    1.0208    constr:    0.0000
     atom:   16    charge:    3.9578    magn:    1.0710    constr:    0.0000
     atom:   17    charge:    3.9729    magn:    1.0124    constr:    0.0000
     atom:   18    charge:    3.9653    magn:    1.0143    constr:    0.0000
     atom:   19    charge:    3.9541    magn:    1.0216    constr:    0.0000
     atom:   20    charge:    3.9608    magn:    1.0302    constr:    0.0000
     atom:   21    charge:    3.9729    magn:    1.0124    constr:    0.0000
     atom:   22    charge:    3.9654    magn:    1.0141    constr:    0.0000
     atom:   23    charge:    3.9557    magn:    1.0208    constr:    0.0000
     atom:   24    charge:    3.9580    magn:    1.0713    constr:    0.0000
     atom:   25    charge:    3.9731    magn:    1.0125    constr:    0.0000
     atom:   26    charge:    3.9655    magn:    1.0142    constr:    0.0000
     atom:   27    charge:    3.9564    magn:    1.0193    constr:    0.0000
     atom:   28    charge:    3.9579    magn:    1.0710    constr:    0.0000
     atom:   29    charge:    3.9730    magn:    1.0126    constr:    0.0000
     atom:   30    charge:    3.9655    magn:    1.0141    constr:    0.0000
     atom:   31    charge:    3.9559    magn:    1.0205    constr:    0.0000
     atom:   32    charge:    3.9580    magn:    1.0693    constr:    0.0000
     atom:   33    charge:    3.9729    magn:    1.0125    constr:    0.0000
     atom:   34    charge:    3.9654    magn:    1.0140    constr:    0.0000
     atom:   35    charge:    3.9560    magn:    1.0203    constr:    0.0000
     atom:   36    charge:    3.9585    magn:    1.0693    constr:    0.0000
     atom:   37    charge:    2.0386    magn:    0.8579    constr:    0.0000
     atom:   38    charge:    2.0379    magn:    0.8562    constr:    0.0000
     atom:   39    charge:    2.0394    magn:    0.8571    constr:    0.0000
     atom:   40    charge:    2.0407    magn:    0.8609    constr:    0.0000
     atom:   41    charge:    2.0403    magn:    0.8588    constr:    0.0000
     atom:   42    charge:    2.0407    magn:    0.8609    constr:    0.0000
     atom:   43    charge:    2.0408    magn:    0.8588    constr:    0.0000
     atom:   44    charge:    2.0404    magn:    0.8587    constr:    0.0000
     atom:   45    charge:    0.5729    magn:    0.3728    constr:    0.0000

     total cpu time spent up to now is      412.2 secs

     total energy              =   -3901.33386675 Ry
     Harris-Foulkes estimate   =   -3900.96406472 Ry
     estimated scf accuracy    <      11.79728560 Ry

     total magnetization       =    48.09 Bohr mag/cell
     absolute magnetization    =    48.61 Bohr mag/cell

     iteration #  5     ecut=    44.10 Ry     beta=0.10
     Davidson diagonalization with overlap
     ethr =  2.59E-03,  avg # of iterations =  1.0

     negative rho (up, down):  4.261E-04 2.391E-04
 
     Adding external electric field

     Computed dipole along edir(3) : 
        Dipole               -1.2989 Ry au,         -3.3014 Debye
        Dipole field         -0.0023 Ry au
 
        Potential amp.        0.1806 Ry
        Total length         38.9923 bohr
 
 
     Adding external electric field

     Computed dipole along edir(3) : 
        Dipole               -1.2989 Ry au,         -3.3014 Debye
        Dipole field         -0.0023 Ry au
 
        Potential amp.        0.1806 Ry
        Total length         38.9923 bohr
 
 
     Magnetic moment per site:
     atom:    1    charge:    3.9802    magn:    0.9481    constr:    0.0000
     atom:    2    charge:    3.9610    magn:    0.9569    constr:    0.0000
     atom:    3    charge:    3.9637    magn:    0.9536    constr:    0.0000
     atom:    4    charge:    3.9603    magn:    0.9575    constr:    0.0000
     atom:    5    charge:    3.9801    magn:    0.9481    constr:    0.0000
     atom:    6    charge:    3.9611    magn:    0.9570    constr:    0.0000
     atom:    7    charge:    3.9636    magn:    0.9540    constr:    0.0000
     atom:    8    charge:    3.9605    magn:    0.9657    constr:    0.0000
     atom:    9    charge:    3.9803    magn:    0.9480    constr:    0.0000
     atom:   10    charge:    3.9610    magn:    0.9570    constr:    0.0000
     atom:   11    charge:    3.9635    magn:    0.9530    constr:    0.0000
     atom:   12    charge:    3.9611    magn:    1.0210    constr:    0.0000
     atom:   13    charge:    3.9802    magn:    0.9482    constr:    0.0000
     atom:   14    charge:    3.9605    magn:    0.9577    constr:    0.0000
     atom:   15    charge:    3.9639    magn:    0.9537    constr:    0.0000
     atom:   16    charge:    3.9615    magn:    1.0261    constr:    0.0000
     atom:   17    charge:    3.9804    magn:    0.9475    constr:    0.0000
     atom:   18    charge:    3.9609    magn:    0.9573    constr:    0.0000
     atom:   19    charge:    3.9628    magn:    0.9543    constr:    0.0000
     atom:   20    charge:    3.9607    magn:    0.9702    constr:    0.0000
     atom:   21    charge:    3.9803    magn:    0.9476    constr:    0.0000
     atom:   22    charge:    3.9609    magn:    0.9571    constr:    0.0000
     atom:   23    charge:    3.9638    magn:    0.9538    constr:    0.0000
     atom:   24    charge:    3.9614    magn:    1.0267    constr:    0.0000
     atom:   25    charge:    3.9801    magn:    0.9480    constr:    0.0000
     atom:   26    charge:    3.9604    magn:    0.9578    constr:    0.0000
     atom:   27    charge:    3.9636    magn:    0.9526    constr:    0.0000
     atom:   28    charge:    3.9614    magn:    1.0262    constr:    0.0000
     atom:   29    charge:    3.9801    magn:    0.9480    constr:    0.0000
     atom:   30    charge:    3.9605    magn:    0.9576    constr:    0.0000
     atom:   31    charge:    3.9635    magn:    0.9539    constr:    0.0000
     atom:   32    charge:    3.9607    magn:    1.0242    constr:    0.0000
     atom:   33    charge:    3.9803    magn:    0.9476    constr:    0.0000
     atom:   34    charge:    3.9608    magn:    0.9571    constr:    0.0000
     atom:   35    charge:    3.9635    magn:    0.9538    constr:    0.0000
     atom:   36    charge:    3.9607    magn:    1.0244    constr:    0.0000
     atom:   37    charge:    2.0460    magn:    0.8045    constr:    0.0000
     atom:   38    charge:    2.0453    magn:    0.8020    constr:    0.0000
     atom:   39    charge:    2.0467    magn:    0.8030    constr:    0.0000
     atom:   40    charge:    2.0487    magn:    0.8087    constr:    0.0000
     atom:   41    charge:    2.0478    magn:    0.8055    constr:    0.0000
     atom:   42    charge:    2.0485    magn:    0.8088    constr:    0.0000
     atom:   43    charge:    2.0483    magn:    0.8053    constr:    0.0000
     atom:   44    charge:    2.0480    magn:    0.8053    constr:    0.0000
     atom:   45    charge:    0.5735    magn:    0.3549    constr:    0.0000

     total cpu time spent up to now is      487.3 secs

     total energy              =   -3901.79848392 Ry
     Harris-Foulkes estimate   =   -3901.55677557 Ry
     estimated scf accuracy    <       6.03698312 Ry

     total magnetization       =    45.97 Bohr mag/cell
     absolute magnetization    =    46.42 Bohr mag/cell

     iteration #  6     ecut=    44.10 Ry     beta=0.10
     Davidson diagonalization with overlap
     ethr =  1.47E-03,  avg # of iterations =  1.0

     negative rho (up, down):  4.339E-04 2.560E-04
 
     Adding external electric field

     Computed dipole along edir(3) : 
        Dipole               -1.3323 Ry au,         -3.3863 Debye
        Dipole field         -0.0024 Ry au
 
        Potential amp.        0.1853 Ry
        Total length         38.9923 bohr
 
 
     Adding external electric field

     Computed dipole along edir(3) : 
        Dipole               -1.3323 Ry au,         -3.3863 Debye
        Dipole field         -0.0024 Ry au
 
        Potential amp.        0.1853 Ry
        Total length         38.9923 bohr
 
 
     Magnetic moment per site:
     atom:    1    charge:    3.9783    magn:    0.8493    constr:    0.0000
     atom:    2    charge:    3.9629    magn:    0.8568    constr:    0.0000
     atom:    3    charge:    3.9664    magn:    0.8515    constr:    0.0000
     atom:    4    charge:    3.9622    magn:    0.8493    constr:    0.0000
     atom:    5    charge:    3.9779    magn:    0.8494    constr:    0.0000
     atom:    6    charge:    3.9628    magn:    0.8570    constr:    0.0000
     atom:    7    charge:    3.9662    magn:    0.8521    constr:    0.0000
     atom:    8    charge:    3.9626    magn:    0.8615    constr:    0.0000
     atom:    9    charge:    3.9781    magn:    0.8494    constr:    0.0000
     atom:   10    charge:    3.9629    magn:    0.8571    constr:    0.0000
     atom:   11    charge:    3.9654    magn:    0.8513    constr:    0.0000
     atom:   12    charge:    3.9632    magn:    0.9457    constr:    0.0000
     atom:   13    charge:    3.9780    magn:    0.8496    constr:    0.0000
     atom:   14    charge:    3.9635    magn:    0.8573    constr:    0.0000
     atom:   15    charge:    3.9659    magn:    0.8521    constr:    0.0000
     atom:   16    charge:    3.9630    magn:    0.9547    constr:    0.0000
     atom:   17    charge:    3.9773    magn:    0.8494    constr:    0.0000
     atom:   18    charge:    3.9630    magn:    0.8572    constr:    0.0000
     atom:   19    charge:    3.9670    magn:    0.8511    constr:    0.0000
     atom:   20    charge:    3.9601    magn:    0.8677    constr:    0.0000
     atom:   21    charge:    3.9773    magn:    0.8494    constr:    0.0000
     atom:   22    charge:    3.9633    magn:    0.8567    constr:    0.0000
     atom:   23    charge:    3.9658    magn:    0.8523    constr:    0.0000
     atom:   24    charge:    3.9627    magn:    0.9556    constr:    0.0000
     atom:   25    charge:    3.9781    magn:    0.8492    constr:    0.0000
     atom:   26    charge:    3.9640    magn:    0.8568    constr:    0.0000
     atom:   27    charge:    3.9647    magn:    0.8512    constr:    0.0000
     atom:   28    charge:    3.9624    magn:    0.9552    constr:    0.0000
     atom:   29    charge:    3.9780    magn:    0.8493    constr:    0.0000
     atom:   30    charge:    3.9637    magn:    0.8569    constr:    0.0000
     atom:   31    charge:    3.9667    magn:    0.8514    constr:    0.0000
     atom:   32    charge:    3.9618    magn:    0.9507    constr:    0.0000
     atom:   33    charge:    3.9778    magn:    0.8490    constr:    0.0000
     atom:   34    charge:    3.9637    magn:    0.8562    constr:    0.0000
     atom:   35    charge:    3.9668    magn:    0.8512    constr:    0.0000
     atom:   36    charge:    3.9614    magn:    0.9510    constr:    0.0000
     atom:   37    charge:    2.0568    magn:    0.7138    constr:    0.0000
     atom:   38    charge:    2.0561    magn:    0.7100    constr:    0.0000
     atom:   39    charge:    2.0575    magn:    0.7110    constr:    0.0000
     atom:   40    charge:    2.0602    magn:    0.7210    constr:    0.0000
     atom:   41    charge:    2.0586    magn:    0.7152    constr:    0.0000
     atom:   42    charge:    2.0603    magn:    0.7209    constr:    0.0000
     atom:   43    charge:    2.0590    magn:    0.7145    constr:    0.0000
     atom:   44    charge:    2.0589    magn:    0.7150    constr:    0.0000
     atom:   45    charge:    0.5755    magn:    0.3221    constr:    0.0000

     total cpu time spent up to now is      562.5 secs

     total energy              =   -3902.40362693 Ry
     Harris-Foulkes estimate   =   -3901.88366392 Ry
     estimated scf accuracy    <       2.18874964 Ry

     total magnetization       =    44.77 Bohr mag/cell
     absolute magnetization    =    45.59 Bohr mag/cell

     iteration #  7     ecut=    44.10 Ry     beta=0.10
     Davidson diagonalization with overlap
     ethr =  5.31E-04,  avg # of iterations =  5.6

     negative rho (up, down):  5.703E-04 6.001E-04
 
     Adding external electric field

     Computed dipole along edir(3) : 
        Dipole               -1.1636 Ry au,         -2.9575 Debye
        Dipole field         -0.0021 Ry au
 
        Potential amp.        0.1618 Ry
        Total length         38.9923 bohr
 
 
     Adding external electric field

     Computed dipole along edir(3) : 
        Dipole               -1.1636 Ry au,         -2.9575 Debye
        Dipole field         -0.0021 Ry au
 
        Potential amp.        0.1618 Ry
        Total length         38.9923 bohr
 
 
     Magnetic moment per site:
     atom:    1    charge:    3.9652    magn:    0.6470    constr:    0.0000
     atom:    2    charge:    3.9688    magn:    0.6469    constr:    0.0000
     atom:    3    charge:    3.9695    magn:    0.6393    constr:    0.0000
     atom:    4    charge:    3.9634    magn:    0.6164    constr:    0.0000
     atom:    5    charge:    3.9669    magn:    0.6454    constr:    0.0000
     atom:    6    charge:    3.9689    magn:    0.6467    constr:    0.0000
     atom:    7    charge:    3.9701    magn:    0.6398    constr:    0.0000
     atom:    8    charge:    3.9642    magn:    0.6371    constr:    0.0000
     atom:    9    charge:    3.9664    magn:    0.6461    constr:    0.0000
     atom:   10    charge:    3.9692    magn:    0.6470    constr:    0.0000
     atom:   11    charge:    3.9725    magn:    0.6363    constr:    0.0000
     atom:   12    charge:    3.9710    magn:    0.7802    constr:    0.0000
     atom:   13    charge:    3.9680    magn:    0.6449    constr:    0.0000
     atom:   14    charge:    3.9658    magn:    0.6511    constr:    0.0000
     atom:   15    charge:    3.9716    magn:    0.6384    constr:    0.0000
     atom:   16    charge:    3.9714    magn:    0.7992    constr:    0.0000
     atom:   17    charge:    3.9720    magn:    0.6408    constr:    0.0000
     atom:   18    charge:    3.9673    magn:    0.6484    constr:    0.0000
     atom:   19    charge:    3.9624    magn:    0.6448    constr:    0.0000
     atom:   20    charge:    3.9656    magn:    0.6413    constr:    0.0000
     atom:   21    charge:    3.9717    magn:    0.6411    constr:    0.0000
     atom:   22    charge:    3.9662    magn:    0.6488    constr:    0.0000
     atom:   23    charge:    3.9715    magn:    0.6386    constr:    0.0000
     atom:   24    charge:    3.9714    magn:    0.8005    constr:    0.0000
     atom:   25    charge:    3.9654    magn:    0.6466    constr:    0.0000
     atom:   26    charge:    3.9623    magn:    0.6537    constr:    0.0000
     atom:   27    charge:    3.9736    magn:    0.6348    constr:    0.0000
     atom:   28    charge:    3.9712    magn:    0.7995    constr:    0.0000
     atom:   29    charge:    3.9663    magn:    0.6458    constr:    0.0000
     atom:   30    charge:    3.9641    magn:    0.6521    constr:    0.0000
     atom:   31    charge:    3.9683    magn:    0.6404    constr:    0.0000
     atom:   32    charge:    3.9711    magn:    0.7876    constr:    0.0000
     atom:   33    charge:    3.9683    magn:    0.6437    constr:    0.0000
     atom:   34    charge:    3.9642    magn:    0.6505    constr:    0.0000
     atom:   35    charge:    3.9676    magn:    0.6406    constr:    0.0000
     atom:   36    charge:    3.9716    magn:    0.7866    constr:    0.0000
     atom:   37    charge:    2.0682    magn:    0.5222    constr:    0.0000
     atom:   38    charge:    2.0673    magn:    0.5159    constr:    0.0000
     atom:   39    charge:    2.0689    magn:    0.5166    constr:    0.0000
     atom:   40    charge:    2.0732    magn:    0.5383    constr:    0.0000
     atom:   41    charge:    2.0701    magn:    0.5249    constr:    0.0000
     atom:   42    charge:    2.0735    magn:    0.5378    constr:    0.0000
     atom:   43    charge:    2.0700    magn:    0.5224    constr:    0.0000
     atom:   44    charge:    2.0703    magn:    0.5246    constr:    0.0000
     atom:   45    charge:    0.5762    magn:    0.2440    constr:    0.0000

     total cpu time spent up to now is      660.2 secs

     total energy              =   -3903.12912286 Ry
     Harris-Foulkes estimate   =   -3902.43698435 Ry
     estimated scf accuracy    <       1.00378976 Ry

     total magnetization       =    42.43 Bohr mag/cell
     absolute magnetization    =    43.86 Bohr mag/cell

     iteration #  8     ecut=    44.10 Ry     beta=0.10
     Davidson diagonalization with overlap
     ethr =  2.44E-04,  avg # of iterations =  6.9

     negative rho (up, down):  6.370E-04 7.101E-04
 
     Adding external electric field

     Computed dipole along edir(3) : 
        Dipole               -1.0839 Ry au,         -2.7550 Debye
        Dipole field         -0.0019 Ry au
 
        Potential amp.        0.1507 Ry
        Total length         38.9923 bohr
 
 
     Adding external electric field

     Computed dipole along edir(3) : 
        Dipole               -1.0839 Ry au,         -2.7550 Debye
        Dipole field         -0.0019 Ry au
 
        Potential amp.        0.1507 Ry
        Total length         38.9923 bohr
 
 
     Magnetic moment per site:
     atom:    1    charge:    3.9648    magn:    0.5693    constr:    0.0000
     atom:    2    charge:    3.9671    magn:    0.5724    constr:    0.0000
     atom:    3    charge:    3.9709    magn:    0.5603    constr:    0.0000
     atom:    4    charge:    3.9676    magn:    0.5259    constr:    0.0000
     atom:    5    charge:    3.9649    magn:    0.5689    constr:    0.0000
     atom:    6    charge:    3.9677    magn:    0.5716    constr:    0.0000
     atom:    7    charge:    3.9708    magn:    0.5614    constr:    0.0000
     atom:    8    charge:    3.9685    magn:    0.5493    constr:    0.0000
     atom:    9    charge:    3.9647    magn:    0.5693    constr:    0.0000
     atom:   10    charge:    3.9669    magn:    0.5729    constr:    0.0000
     atom:   11    charge:    3.9703    magn:    0.5600    constr:    0.0000
     atom:   12    charge:    3.9737    magn:    0.7165    constr:    0.0000
     atom:   13    charge:    3.9637    magn:    0.5700    constr:    0.0000
     atom:   14    charge:    3.9672    magn:    0.5748    constr:    0.0000
     atom:   15    charge:    3.9713    magn:    0.5609    constr:    0.0000
     atom:   16    charge:    3.9717    magn:    0.7387    constr:    0.0000
     atom:   17    charge:    3.9633    magn:    0.5692    constr:    0.0000
     atom:   18    charge:    3.9681    magn:    0.5720    constr:    0.0000
     atom:   19    charge:    3.9681    magn:    0.5633    constr:    0.0000
     atom:   20    charge:    3.9688    magn:    0.5519    constr:    0.0000
     atom:   21    charge:    3.9634    magn:    0.5692    constr:    0.0000
     atom:   22    charge:    3.9682    magn:    0.5714    constr:    0.0000
     atom:   23    charge:    3.9713    magn:    0.5611    constr:    0.0000
     atom:   24    charge:    3.9715    magn:    0.7404    constr:    0.0000
     atom:   25    charge:    3.9650    magn:    0.5689    constr:    0.0000
     atom:   26    charge:    3.9673    magn:    0.5749    constr:    0.0000
     atom:   27    charge:    3.9713    magn:    0.5586    constr:    0.0000
     atom:   28    charge:    3.9711    magn:    0.7388    constr:    0.0000
     atom:   29    charge:    3.9648    magn:    0.5689    constr:    0.0000
     atom:   30    charge:    3.9675    magn:    0.5743    constr:    0.0000
     atom:   31    charge:    3.9709    magn:    0.5605    constr:    0.0000
     atom:   32    charge:    3.9721    magn:    0.7234    constr:    0.0000
     atom:   33    charge:    3.9652    magn:    0.5678    constr:    0.0000
     atom:   34    charge:    3.9677    magn:    0.5723    constr:    0.0000
     atom:   35    charge:    3.9709    magn:    0.5602    constr:    0.0000
     atom:   36    charge:    3.9722    magn:    0.7220    constr:    0.0000
     atom:   37    charge:    2.0693    magn:    0.4487    constr:    0.0000
     atom:   38    charge:    2.0689    magn:    0.4420    constr:    0.0000
     atom:   39    charge:    2.0707    magn:    0.4428    constr:    0.0000
     atom:   40    charge:    2.0735    magn:    0.4682    constr:    0.0000
     atom:   41    charge:    2.0708    magn:    0.4516    constr:    0.0000
     atom:   42    charge:    2.0737    magn:    0.4675    constr:    0.0000
     atom:   43    charge:    2.0709    magn:    0.4485    constr:    0.0000
     atom:   44    charge:    2.0708    magn:    0.4511    constr:    0.0000
     atom:   45    charge:    0.5786    magn:    0.2125    constr:    0.0000

     total cpu time spent up to now is      768.5 secs

     total energy              =   -3903.35601856 Ry
     Harris-Foulkes estimate   =   -3903.24394422 Ry
     estimated scf accuracy    <       1.29904814 Ry

     total magnetization       =    35.64 Bohr mag/cell
     absolute magnetization    =    38.27 Bohr mag/cell

     iteration #  9     ecut=    44.10 Ry     beta=0.10
     Davidson diagonalization with overlap
     ethr =  2.44E-04,  avg # of iterations =  1.8

     negative rho (up, down):  6.165E-04 6.448E-04
 
     Adding external electric field

     Computed dipole along edir(3) : 
        Dipole               -1.0665 Ry au,         -2.7107 Debye
        Dipole field         -0.0019 Ry au
 
        Potential amp.        0.1483 Ry
        Total length         38.9923 bohr
 
 
     Adding external electric field

     Computed dipole along edir(3) : 
        Dipole               -1.0665 Ry au,         -2.7107 Debye
        Dipole field         -0.0019 Ry au
 
        Potential amp.        0.1483 Ry
        Total length         38.9923 bohr
 
 
     Magnetic moment per site:
     atom:    1    charge:    3.9643    magn:    0.5609    constr:    0.0000
     atom:    2    charge:    3.9678    magn:    0.5632    constr:    0.0000
     atom:    3    charge:    3.9710    magn:    0.5510    constr:    0.0000
     atom:    4    charge:    3.9679    magn:    0.5138    constr:    0.0000
     atom:    5    charge:    3.9646    magn:    0.5604    constr:    0.0000
     atom:    6    charge:    3.9682    magn:    0.5625    constr:    0.0000
     atom:    7    charge:    3.9710    magn:    0.5521    constr:    0.0000
     atom:    8    charge:    3.9687    magn:    0.5372    constr:    0.0000
     atom:    9    charge:    3.9644    magn:    0.5608    constr:    0.0000
     atom:   10    charge:    3.9677    magn:    0.5636    constr:    0.0000
     atom:   11    charge:    3.9705    magn:    0.5508    constr:    0.0000
     atom:   12    charge:    3.9740    magn:    0.7073    constr:    0.0000
     atom:   13    charge:    3.9643    magn:    0.5608    constr:    0.0000
     atom:   14    charge:    3.9676    magn:    0.5659    constr:    0.0000
     atom:   15    charge:    3.9713    magn:    0.5516    constr:    0.0000
     atom:   16    charge:    3.9714    magn:    0.7292    constr:    0.0000
     atom:   17    charge:    3.9645    magn:    0.5597    constr:    0.0000
     atom:   18    charge:    3.9681    magn:    0.5632    constr:    0.0000
     atom:   19    charge:    3.9689    magn:    0.5537    constr:    0.0000
     atom:   20    charge:    3.9678    magn:    0.5390    constr:    0.0000
     atom:   21    charge:    3.9645    magn:    0.5597    constr:    0.0000
     atom:   22    charge:    3.9680    magn:    0.5628    constr:    0.0000
     atom:   23    charge:    3.9713    magn:    0.5519    constr:    0.0000
     atom:   24    charge:    3.9709    magn:    0.7307    constr:    0.0000
     atom:   25    charge:    3.9645    magn:    0.5606    constr:    0.0000
     atom:   26    charge:    3.9674    magn:    0.5661    constr:    0.0000
     atom:   27    charge:    3.9711    magn:    0.5496    constr:    0.0000
     atom:   28    charge:    3.9710    magn:    0.7292    constr:    0.0000
     atom:   29    charge:    3.9645    magn:    0.5604    constr:    0.0000
     atom:   30    charge:    3.9676    magn:    0.5655    constr:    0.0000
     atom:   31    charge:    3.9709    magn:    0.5513    constr:    0.0000
     atom:   32    charge:    3.9721    magn:    0.7133    constr:    0.0000
     atom:   33    charge:    3.9647    magn:    0.5595    constr:    0.0000
     atom:   34    charge:    3.9675    magn:    0.5637    constr:    0.0000
     atom:   35    charge:    3.9708    magn:    0.5511    constr:    0.0000
     atom:   36    charge:    3.9719    magn:    0.7119    constr:    0.0000
     atom:   37    charge:    2.0679    magn:    0.4388    constr:    0.0000
     atom:   38    charge:    2.0678    magn:    0.4322    constr:    0.0000
     atom:   39    charge:    2.0698    magn:    0.4333    constr:    0.0000
     atom:   40    charge:    2.0717    magn:    0.4586    constr:    0.0000
     atom:   41    charge:    2.0695    magn:    0.4416    constr:    0.0000
     atom:   42    charge:    2.0719    magn:    0.4578    constr:    0.0000
     atom:   43    charge:    2.0695    magn:    0.4384    constr:    0.0000
     atom:   44    charge:    2.0694    magn:    0.4410    constr:    0.0000
     atom:   45    charge:    0.5797    magn:    0.2077    constr:    0.0000

     total cpu time spent up to now is      847.3 secs

     total energy              =   -3903.40560571 Ry
     Harris-Foulkes estimate   =   -3903.39731825 Ry
     estimated scf accuracy    <       0.73949769 Ry

     total magnetization       =    31.14 Bohr mag/cell
     absolute magnetization    =    34.57 Bohr mag/cell

     iteration # 10     ecut=    44.10 Ry     beta=0.10
     Davidson diagonalization with overlap
     ethr =  1.79E-04,  avg # of iterations =  2.1

     negative rho (up, down):  6.193E-04 6.459E-04
 
     Adding external electric field

     Computed dipole along edir(3) : 
        Dipole               -1.0623 Ry au,         -2.7002 Debye
        Dipole field         -0.0019 Ry au
 
        Potential amp.        0.1477 Ry
        Total length         38.9923 bohr
 
 
     Adding external electric field

     Computed dipole along edir(3) : 
        Dipole               -1.0623 Ry au,         -2.7002 Debye
        Dipole field         -0.0019 Ry au
 
        Potential amp.        0.1477 Ry
        Total length         38.9923 bohr
 
 
     Magnetic moment per site:
     atom:    1    charge:    3.9657    magn:    0.5251    constr:    0.0000
     atom:    2    charge:    3.9682    magn:    0.5276    constr:    0.0000
     atom:    3    charge:    3.9704    magn:    0.5142    constr:    0.0000
     atom:    4    charge:    3.9647    magn:    0.4659    constr:    0.0000
     atom:    5    charge:    3.9656    magn:    0.5250    constr:    0.0000
     atom:    6    charge:    3.9680    magn:    0.5275    constr:    0.0000
     atom:    7    charge:    3.9703    magn:    0.5153    constr:    0.0000
     atom:    8    charge:    3.9657    magn:    0.4891    constr:    0.0000
     atom:    9    charge:    3.9656    magn:    0.5251    constr:    0.0000
     atom:   10    charge:    3.9682    magn:    0.5280    constr:    0.0000
     atom:   11    charge:    3.9709    magn:    0.5141    constr:    0.0000
     atom:   12    charge:    3.9735    magn:    0.6707    constr:    0.0000
     atom:   13    charge:    3.9639    magn:    0.5262    constr:    0.0000
     atom:   14    charge:    3.9688    magn:    0.5302    constr:    0.0000
     atom:   15    charge:    3.9707    magn:    0.5153    constr:    0.0000
     atom:   16    charge:    3.9718    magn:    0.6903    constr:    0.0000
     atom:   17    charge:    3.9645    magn:    0.5248    constr:    0.0000
     atom:   18    charge:    3.9690    magn:    0.5273    constr:    0.0000
     atom:   19    charge:    3.9676    magn:    0.5179    constr:    0.0000
     atom:   20    charge:    3.9648    magn:    0.4868    constr:    0.0000
     atom:   21    charge:    3.9645    magn:    0.5248    constr:    0.0000
     atom:   22    charge:    3.9692    magn:    0.5267    constr:    0.0000
     atom:   23    charge:    3.9709    magn:    0.5154    constr:    0.0000
     atom:   24    charge:    3.9720    magn:    0.6914    constr:    0.0000
     atom:   25    charge:    3.9663    magn:    0.5245    constr:    0.0000
     atom:   26    charge:    3.9691    magn:    0.5299    constr:    0.0000
     atom:   27    charge:    3.9726    magn:    0.5121    constr:    0.0000
     atom:   28    charge:    3.9713    magn:    0.6901    constr:    0.0000
     atom:   29    charge:    3.9659    magn:    0.5246    constr:    0.0000
     atom:   30    charge:    3.9692    magn:    0.5293    constr:    0.0000
     atom:   31    charge:    3.9714    magn:    0.5139    constr:    0.0000
     atom:   32    charge:    3.9728    magn:    0.6724    constr:    0.0000
     atom:   33    charge:    3.9669    magn:    0.5231    constr:    0.0000
     atom:   34    charge:    3.9696    magn:    0.5272    constr:    0.0000
     atom:   35    charge:    3.9716    magn:    0.5135    constr:    0.0000
     atom:   36    charge:    3.9726    magn:    0.6704    constr:    0.0000
     atom:   37    charge:    2.0625    magn:    0.3989    constr:    0.0000
     atom:   38    charge:    2.0624    magn:    0.3930    constr:    0.0000
     atom:   39    charge:    2.0649    magn:    0.3948    constr:    0.0000
     atom:   40    charge:    2.0651    magn:    0.4200    constr:    0.0000
     atom:   41    charge:    2.0637    magn:    0.4012    constr:    0.0000
     atom:   42    charge:    2.0647    magn:    0.4187    constr:    0.0000
     atom:   43    charge:    2.0638    magn:    0.3977    constr:    0.0000
     atom:   44    charge:    2.0633    magn:    0.4001    constr:    0.0000
     atom:   45    charge:    0.5829    magn:    0.1867    constr:    0.0000

     total cpu time spent up to now is      926.7 secs

     total energy              =   -3903.44647799 Ry
     Harris-Foulkes estimate   =   -3903.40751499 Ry
     estimated scf accuracy    <       0.42741692 Ry

     total magnetization       =    31.10 Bohr mag/cell
     absolute magnetization    =    34.61 Bohr mag/cell

     iteration # 11     ecut=    44.10 Ry     beta=0.10
     Davidson diagonalization with overlap
     ethr =  1.04E-04,  avg # of iterations =  2.3

     negative rho (up, down):  6.690E-04 7.534E-04
 
     Adding external electric field

     Computed dipole along edir(3) : 
        Dipole               -1.1369 Ry au,         -2.8896 Debye
        Dipole field         -0.0020 Ry au
 
        Potential amp.        0.1581 Ry
        Total length         38.9923 bohr
 
 
     Adding external electric field

     Computed dipole along edir(3) : 
        Dipole               -1.1369 Ry au,         -2.8896 Debye
        Dipole field         -0.0020 Ry au
 
        Potential amp.        0.1581 Ry
        Total length         38.9923 bohr
 
 
     Magnetic moment per site:
     atom:    1    charge:    3.9691    magn:    0.4405    constr:    0.0000
     atom:    2    charge:    3.9715    magn:    0.4413    constr:    0.0000
     atom:    3    charge:    3.9709    magn:    0.4259    constr:    0.0000
     atom:    4    charge:    3.9621    magn:    0.3504    constr:    0.0000
     atom:    5    charge:    3.9693    magn:    0.4405    constr:    0.0000
     atom:    6    charge:    3.9733    magn:    0.4402    constr:    0.0000
     atom:    7    charge:    3.9706    magn:    0.4272    constr:    0.0000
     atom:    8    charge:    3.9637    magn:    0.3726    constr:    0.0000
     atom:    9    charge:    3.9688    magn:    0.4406    constr:    0.0000
     atom:   10    charge:    3.9710    magn:    0.4421    constr:    0.0000
     atom:   11    charge:    3.9684    magn:    0.4297    constr:    0.0000
     atom:   12    charge:    3.9725    magn:    0.5830    constr:    0.0000
     atom:   13    charge:    3.9690    magn:    0.4404    constr:    0.0000
     atom:   14    charge:    3.9709    magn:    0.4457    constr:    0.0000
     atom:   15    charge:    3.9712    magn:    0.4282    constr:    0.0000
     atom:   16    charge:    3.9698    magn:    0.5972    constr:    0.0000
     atom:   17    charge:    3.9669    magn:    0.4406    constr:    0.0000
     atom:   18    charge:    3.9725    magn:    0.4409    constr:    0.0000
     atom:   19    charge:    3.9710    magn:    0.4288    constr:    0.0000
     atom:   20    charge:    3.9639    magn:    0.3594    constr:    0.0000
     atom:   21    charge:    3.9670    magn:    0.4406    constr:    0.0000
     atom:   22    charge:    3.9725    magn:    0.4403    constr:    0.0000
     atom:   23    charge:    3.9708    magn:    0.4286    constr:    0.0000
     atom:   24    charge:    3.9694    magn:    0.5974    constr:    0.0000
     atom:   25    charge:    3.9683    magn:    0.4412    constr:    0.0000
     atom:   26    charge:    3.9706    magn:    0.4456    constr:    0.0000
     atom:   27    charge:    3.9675    magn:    0.4295    constr:    0.0000
     atom:   28    charge:    3.9697    magn:    0.5963    constr:    0.0000
     atom:   29    charge:    3.9682    magn:    0.4411    constr:    0.0000
     atom:   30    charge:    3.9708    magn:    0.4447    constr:    0.0000
     atom:   31    charge:    3.9698    magn:    0.4270    constr:    0.0000
     atom:   32    charge:    3.9723    magn:    0.5740    constr:    0.0000
     atom:   33    charge:    3.9670    magn:    0.4409    constr:    0.0000
     atom:   34    charge:    3.9705    magn:    0.4431    constr:    0.0000
     atom:   35    charge:    3.9695    magn:    0.4272    constr:    0.0000
     atom:   36    charge:    3.9720    magn:    0.5705    constr:    0.0000
     atom:   37    charge:    2.0496    magn:    0.3033    constr:    0.0000
     atom:   38    charge:    2.0495    magn:    0.2992    constr:    0.0000
     atom:   39    charge:    2.0528    magn:    0.3031    constr:    0.0000
     atom:   40    charge:    2.0502    magn:    0.3273    constr:    0.0000
     atom:   41    charge:    2.0502    magn:    0.3039    constr:    0.0000
     atom:   42    charge:    2.0494    magn:    0.3248    constr:    0.0000
     atom:   43    charge:    2.0505    magn:    0.2999    constr:    0.0000
     atom:   44    charge:    2.0494    magn:    0.3015    constr:    0.0000
     atom:   45    charge:    0.5861    magn:    0.1335    constr:    0.0000

     total cpu time spent up to now is     1008.5 secs

     total energy              =   -3903.49445456 Ry
     Harris-Foulkes estimate   =   -3903.45536770 Ry
     estimated scf accuracy    <       0.35247010 Ry

     total magnetization       =    29.66 Bohr mag/cell
     absolute magnetization    =    33.49 Bohr mag/cell

     iteration # 12     ecut=    44.10 Ry     beta=0.10
     Davidson diagonalization with overlap
     ethr =  8.56E-05,  avg # of iterations =  1.2

     negative rho (up, down):  6.625E-04 7.318E-04
 
     Adding external electric field

     Computed dipole along edir(3) : 
        Dipole               -1.1194 Ry au,         -2.8453 Debye
        Dipole field         -0.0020 Ry au
 
        Potential amp.        0.1557 Ry
        Total length         38.9923 bohr
 
 
     Adding external electric field

     Computed dipole along edir(3) : 
        Dipole               -1.1194 Ry au,         -2.8453 Debye
        Dipole field         -0.0020 Ry au
 
        Potential amp.        0.1557 Ry
        Total length         38.9923 bohr
 
 
     Magnetic moment per site:
     atom:    1    charge:    3.9677    magn:    0.4197    constr:    0.0000
     atom:    2    charge:    3.9717    magn:    0.4192    constr:    0.0000
     atom:    3    charge:    3.9706    magn:    0.4031    constr:    0.0000
     atom:    4    charge:    3.9643    magn:    0.3191    constr:    0.0000
     atom:    5    charge:    3.9675    magn:    0.4201    constr:    0.0000
     atom:    6    charge:    3.9713    magn:    0.4193    constr:    0.0000
     atom:    7    charge:    3.9704    magn:    0.4044    constr:    0.0000
     atom:    8    charge:    3.9654    magn:    0.3409    constr:    0.0000
     atom:    9    charge:    3.9679    magn:    0.4196    constr:    0.0000
     atom:   10    charge:    3.9718    magn:    0.4196    constr:    0.0000
     atom:   11    charge:    3.9698    magn:    0.4068    constr:    0.0000
     atom:   12    charge:    3.9717    magn:    0.5586    constr:    0.0000
     atom:   13    charge:    3.9679    magn:    0.4195    constr:    0.0000
     atom:   14    charge:    3.9720    magn:    0.4231    constr:    0.0000
     atom:   15    charge:    3.9709    magn:    0.4057    constr:    0.0000
     atom:   16    charge:    3.9682    magn:    0.5711    constr:    0.0000
     atom:   17    charge:    3.9678    magn:    0.4185    constr:    0.0000
     atom:   18    charge:    3.9717    magn:    0.4192    constr:    0.0000
     atom:   19    charge:    3.9698    magn:    0.4069    constr:    0.0000
     atom:   20    charge:    3.9643    magn:    0.3246    constr:    0.0000
     atom:   21    charge:    3.9679    magn:    0.4185    constr:    0.0000
     atom:   22    charge:    3.9719    magn:    0.4186    constr:    0.0000
     atom:   23    charge:    3.9709    magn:    0.4059    constr:    0.0000
     atom:   24    charge:    3.9673    magn:    0.5708    constr:    0.0000
     atom:   25    charge:    3.9681    magn:    0.4198    constr:    0.0000
     atom:   26    charge:    3.9720    magn:    0.4228    constr:    0.0000
     atom:   27    charge:    3.9707    magn:    0.4054    constr:    0.0000
     atom:   28    charge:    3.9681    magn:    0.5701    constr:    0.0000
     atom:   29    charge:    3.9681    magn:    0.4196    constr:    0.0000
     atom:   30    charge:    3.9721    magn:    0.4219    constr:    0.0000
     atom:   31    charge:    3.9708    magn:    0.4036    constr:    0.0000
     atom:   32    charge:    3.9701    magn:    0.5468    constr:    0.0000
     atom:   33    charge:    3.9682    magn:    0.4185    constr:    0.0000
     atom:   34    charge:    3.9722    magn:    0.4201    constr:    0.0000
     atom:   35    charge:    3.9708    magn:    0.4036    constr:    0.0000
     atom:   36    charge:    3.9695    magn:    0.5427    constr:    0.0000
     atom:   37    charge:    2.0474    magn:    0.2773    constr:    0.0000
     atom:   38    charge:    2.0474    magn:    0.2738    constr:    0.0000
     atom:   39    charge:    2.0507    magn:    0.2784    constr:    0.0000
     atom:   40    charge:    2.0488    magn:    0.3021    constr:    0.0000
     atom:   41    charge:    2.0484    magn:    0.2776    constr:    0.0000
     atom:   42    charge:    2.0480    magn:    0.2989    constr:    0.0000
     atom:   43    charge:    2.0486    magn:    0.2735    constr:    0.0000
     atom:   44    charge:    2.0477    magn:    0.2748    constr:    0.0000
     atom:   45    charge:    0.5842    magn:    0.1196    constr:    0.0000

     total cpu time spent up to now is     1084.1 secs

     total energy              =   -3903.53267279 Ry
     Harris-Foulkes estimate   =   -3903.53103947 Ry
     estimated scf accuracy    <       0.46386684 Ry

     total magnetization       =    24.88 Bohr mag/cell
     absolute magnetization    =    29.41 Bohr mag/cell

     iteration # 13     ecut=    44.10 Ry     beta=0.10
     Davidson diagonalization with overlap
     ethr =  8.56E-05,  avg # of iterations =  1.0

     negative rho (up, down):  6.401E-04 7.034E-04
 
     Adding external electric field

     Computed dipole along edir(3) : 
        Dipole               -1.1226 Ry au,         -2.8533 Debye
        Dipole field         -0.0020 Ry au
 
        Potential amp.        0.1561 Ry
        Total length         38.9923 bohr
 
 
     Adding external electric field

     Computed dipole along edir(3) : 
        Dipole               -1.1226 Ry au,         -2.8533 Debye
        Dipole field         -0.0020 Ry au
 
        Potential amp.        0.1561 Ry
        Total length         38.9923 bohr
 
 
     Magnetic moment per site:
     atom:    1    charge:    3.9697    magn:    0.3983    constr:    0.0000
     atom:    2    charge:    3.9723    magn:    0.3969    constr:    0.0000
     atom:    3    charge:    3.9711    magn:    0.3796    constr:    0.0000
     atom:    4    charge:    3.9635    magn:    0.2828    constr:    0.0000
     atom:    5    charge:    3.9701    magn:    0.3983    constr:    0.0000
     atom:    6    charge:    3.9732    magn:    0.3962    constr:    0.0000
     atom:    7    charge:    3.9708    magn:    0.3810    constr:    0.0000
     atom:    8    charge:    3.9643    magn:    0.3031    constr:    0.0000
     atom:    9    charge:    3.9693    magn:    0.3985    constr:    0.0000
     atom:   10    charge:    3.9719    magn:    0.3977    constr:    0.0000
     atom:   11    charge:    3.9701    magn:    0.3848    constr:    0.0000
     atom:   12    charge:    3.9699    magn:    0.5283    constr:    0.0000
     atom:   13    charge:    3.9688    magn:    0.3989    constr:    0.0000
     atom:   14    charge:    3.9719    magn:    0.4014    constr:    0.0000
     atom:   15    charge:    3.9710    magn:    0.3830    constr:    0.0000
     atom:   16    charge:    3.9670    magn:    0.5368    constr:    0.0000
     atom:   17    charge:    3.9684    magn:    0.3979    constr:    0.0000
     atom:   18    charge:    3.9727    magn:    0.3967    constr:    0.0000
     atom:   19    charge:    3.9712    magn:    0.3833    constr:    0.0000
     atom:   20    charge:    3.9631    magn:    0.2816    constr:    0.0000
     atom:   21    charge:    3.9682    magn:    0.3981    constr:    0.0000
     atom:   22    charge:    3.9727    magn:    0.3962    constr:    0.0000
     atom:   23    charge:    3.9709    magn:    0.3833    constr:    0.0000
     atom:   24    charge:    3.9667    magn:    0.5354    constr:    0.0000
     atom:   25    charge:    3.9693    magn:    0.3989    constr:    0.0000
     atom:   26    charge:    3.9725    magn:    0.4006    constr:    0.0000
     atom:   27    charge:    3.9709    magn:    0.3832    constr:    0.0000
     atom:   28    charge:    3.9669    magn:    0.5355    constr:    0.0000
     atom:   29    charge:    3.9691    magn:    0.3989    constr:    0.0000
     atom:   30    charge:    3.9723    magn:    0.3999    constr:    0.0000
     atom:   31    charge:    3.9710    magn:    0.3804    constr:    0.0000
     atom:   32    charge:    3.9686    magn:    0.5113    constr:    0.0000
     atom:   33    charge:    3.9686    magn:    0.3981    constr:    0.0000
     atom:   34    charge:    3.9721    magn:    0.3983    constr:    0.0000
     atom:   35    charge:    3.9712    magn:    0.3804    constr:    0.0000
     atom:   36    charge:    3.9683    magn:    0.5062    constr:    0.0000
     atom:   37    charge:    2.0424    magn:    0.2474    constr:    0.0000
     atom:   38    charge:    2.0421    magn:    0.2449    constr:    0.0000
     atom:   39    charge:    2.0452    magn:    0.2507    constr:    0.0000
     atom:   40    charge:    2.0443    magn:    0.2729    constr:    0.0000
     atom:   41    charge:    2.0435    magn:    0.2467    constr:    0.0000
     atom:   42    charge:    2.0433    magn:    0.2687    constr:    0.0000
     atom:   43    charge:    2.0437    magn:    0.2427    constr:    0.0000
     atom:   44    charge:    2.0429    magn:    0.2434    constr:    0.0000
     atom:   45    charge:    0.5818    magn:    0.1013    constr:    0.0000

     total cpu time spent up to now is     1158.9 secs

     total energy              =   -3903.54075222 Ry
     Harris-Foulkes estimate   =   -3903.53809966 Ry
     estimated scf accuracy    <       0.24693623 Ry

     total magnetization       =    24.10 Bohr mag/cell
     absolute magnetization    =    28.74 Bohr mag/cell

     iteration # 14     ecut=    44.10 Ry     beta=0.10
     Davidson diagonalization with overlap
     ethr =  5.99E-05,  avg # of iterations =  1.0

     negative rho (up, down):  5.945E-04 6.549E-04
 
     Adding external electric field

     Computed dipole along edir(3) : 
        Dipole               -1.1537 Ry au,         -2.9325 Debye
        Dipole field         -0.0021 Ry au
 
        Potential amp.        0.1605 Ry
        Total length         38.9923 bohr
 
 
     Adding external electric field

     Computed dipole along edir(3) : 
        Dipole               -1.1537 Ry au,         -2.9325 Debye
        Dipole field         -0.0021 Ry au
 
        Potential amp.        0.1605 Ry
        Total length         38.9923 bohr
 
 
     Magnetic moment per site:
     atom:    1    charge:    3.9713    magn:    0.3808    constr:    0.0000
     atom:    2    charge:    3.9718    magn:    0.3775    constr:    0.0000
     atom:    3    charge:    3.9701    magn:    0.3587    constr:    0.0000
     atom:    4    charge:    3.9629    magn:    0.2413    constr:    0.0000
     atom:    5    charge:    3.9702    magn:    0.3820    constr:    0.0000
     atom:    6    charge:    3.9713    magn:    0.3775    constr:    0.0000
     atom:    7    charge:    3.9702    magn:    0.3598    constr:    0.0000
     atom:    8    charge:    3.9634    magn:    0.2582    constr:    0.0000
     atom:    9    charge:    3.9717    magn:    0.3804    constr:    0.0000
     atom:   10    charge:    3.9722    magn:    0.3778    constr:    0.0000
     atom:   11    charge:    3.9696    magn:    0.3661    constr:    0.0000
     atom:   12    charge:    3.9674    magn:    0.4910    constr:    0.0000
     atom:   13    charge:    3.9721    magn:    0.3804    constr:    0.0000
     atom:   14    charge:    3.9726    magn:    0.3813    constr:    0.0000
     atom:   15    charge:    3.9707    magn:    0.3625    constr:    0.0000
     atom:   16    charge:    3.9646    magn:    0.4918    constr:    0.0000
     atom:   17    charge:    3.9706    magn:    0.3802    constr:    0.0000
     atom:   18    charge:    3.9721    magn:    0.3772    constr:    0.0000
     atom:   19    charge:    3.9720    magn:    0.3615    constr:    0.0000
     atom:   20    charge:    3.9607    magn:    0.2278    constr:    0.0000
     atom:   21    charge:    3.9710    magn:    0.3801    constr:    0.0000
     atom:   22    charge:    3.9723    magn:    0.3766    constr:    0.0000
     atom:   23    charge:    3.9707    magn:    0.3627    constr:    0.0000
     atom:   24    charge:    3.9641    magn:    0.4886    constr:    0.0000
     atom:   25    charge:    3.9716    magn:    0.3812    constr:    0.0000
     atom:   26    charge:    3.9718    magn:    0.3811    constr:    0.0000
     atom:   27    charge:    3.9700    magn:    0.3640    constr:    0.0000
     atom:   28    charge:    3.9639    magn:    0.4898    constr:    0.0000
     atom:   29    charge:    3.9717    magn:    0.3810    constr:    0.0000
     atom:   30    charge:    3.9721    magn:    0.3800    constr:    0.0000
     atom:   31    charge:    3.9710    magn:    0.3589    constr:    0.0000
     atom:   32    charge:    3.9651    magn:    0.4649    constr:    0.0000
     atom:   33    charge:    3.9714    magn:    0.3800    constr:    0.0000
     atom:   34    charge:    3.9723    magn:    0.3785    constr:    0.0000
     atom:   35    charge:    3.9709    magn:    0.3592    constr:    0.0000
     atom:   36    charge:    3.9644    magn:    0.4584    constr:    0.0000
     atom:   37    charge:    2.0345    magn:    0.2126    constr:    0.0000
     atom:   38    charge:    2.0341    magn:    0.2121    constr:    0.0000
     atom:   39    charge:    2.0371    magn:    0.2199    constr:    0.0000
     atom:   40    charge:    2.0369    magn:    0.2387    constr:    0.0000
     atom:   41    charge:    2.0360    magn:    0.2100    constr:    0.0000
     atom:   42    charge:    2.0360    magn:    0.2328    constr:    0.0000
     atom:   43    charge:    2.0361    magn:    0.2064    constr:    0.0000
     atom:   44    charge:    2.0354    magn:    0.2058    constr:    0.0000
     atom:   45    charge:    0.5768    magn:    0.0761    constr:    0.0000

     total cpu time spent up to now is     1233.7 secs

     total energy              =   -3903.54821177 Ry
     Harris-Foulkes estimate   =   -3903.54490017 Ry
     estimated scf accuracy    <       0.08160253 Ry

     total magnetization       =    23.87 Bohr mag/cell
     absolute magnetization    =    28.53 Bohr mag/cell

     iteration # 15     ecut=    44.10 Ry     beta=0.10
     Davidson diagonalization with overlap
     ethr =  1.98E-05,  avg # of iterations =  3.6

     negative rho (up, down):  5.575E-04 5.958E-04
 
     Adding external electric field

     Computed dipole along edir(3) : 
        Dipole               -1.2029 Ry au,         -3.0575 Debye
        Dipole field         -0.0021 Ry au
 
        Potential amp.        0.1673 Ry
        Total length         38.9923 bohr
 
 
     Adding external electric field

     Computed dipole along edir(3) : 
        Dipole               -1.2029 Ry au,         -3.0575 Debye
        Dipole field         -0.0021 Ry au
 
        Potential amp.        0.1673 Ry
        Total length         38.9923 bohr
 
 
     Magnetic moment per site:
     atom:    1    charge:    3.9722    magn:    0.3783    constr:    0.0000
     atom:    2    charge:    3.9713    magn:    0.3743    constr:    0.0000
     atom:    3    charge:    3.9711    magn:    0.3540    constr:    0.0000
     atom:    4    charge:    3.9628    magn:    0.2288    constr:    0.0000
     atom:    5    charge:    3.9727    magn:    0.3787    constr:    0.0000
     atom:    6    charge:    3.9714    magn:    0.3738    constr:    0.0000
     atom:    7    charge:    3.9707    magn:    0.3554    constr:    0.0000
     atom:    8    charge:    3.9631    magn:    0.2436    constr:    0.0000
     atom:    9    charge:    3.9717    magn:    0.3785    constr:    0.0000
     atom:   10    charge:    3.9710    magn:    0.3750    constr:    0.0000
     atom:   11    charge:    3.9698    magn:    0.3632    constr:    0.0000
     atom:   12    charge:    3.9657    magn:    0.4781    constr:    0.0000
     atom:   13    charge:    3.9712    magn:    0.3792    constr:    0.0000
     atom:   14    charge:    3.9710    magn:    0.3786    constr:    0.0000
     atom:   15    charge:    3.9706    magn:    0.3588    constr:    0.0000
     atom:   16    charge:    3.9630    magn:    0.4748    constr:    0.0000
     atom:   17    charge:    3.9724    magn:    0.3773    constr:    0.0000
     atom:   18    charge:    3.9708    magn:    0.3745    constr:    0.0000
     atom:   19    charge:    3.9715    magn:    0.3573    constr:    0.0000
     atom:   20    charge:    3.9604    magn:    0.2095    constr:    0.0000
     atom:   21    charge:    3.9721    magn:    0.3776    constr:    0.0000
     atom:   22    charge:    3.9709    magn:    0.3739    constr:    0.0000
     atom:   23    charge:    3.9705    magn:    0.3591    constr:    0.0000
     atom:   24    charge:    3.9624    magn:    0.4706    constr:    0.0000
     atom:   25    charge:    3.9719    magn:    0.3791    constr:    0.0000
     atom:   26    charge:    3.9721    magn:    0.3772    constr:    0.0000
     atom:   27    charge:    3.9708    magn:    0.3604    constr:    0.0000
     atom:   28    charge:    3.9628    magn:    0.4722    constr:    0.0000
     atom:   29    charge:    3.9717    magn:    0.3791    constr:    0.0000
     atom:   30    charge:    3.9717    magn:    0.3765    constr:    0.0000
     atom:   31    charge:    3.9710    magn:    0.3548    constr:    0.0000
     atom:   32    charge:    3.9634    magn:    0.4476    constr:    0.0000
     atom:   33    charge:    3.9718    magn:    0.3779    constr:    0.0000
     atom:   34    charge:    3.9714    magn:    0.3756    constr:    0.0000
     atom:   35    charge:    3.9712    magn:    0.3549    constr:    0.0000
     atom:   36    charge:    3.9629    magn:    0.4404    constr:    0.0000
     atom:   37    charge:    2.0334    magn:    0.2013    constr:    0.0000
     atom:   38    charge:    2.0329    magn:    0.2018    constr:    0.0000
     atom:   39    charge:    2.0358    magn:    0.2106    constr:    0.0000
     atom:   40    charge:    2.0355    magn:    0.2275    constr:    0.0000
     atom:   41    charge:    2.0349    magn:    0.1978    constr:    0.0000
     atom:   42    charge:    2.0349    magn:    0.2206    constr:    0.0000
     atom:   43    charge:    2.0350    magn:    0.1946    constr:    0.0000
[...]
     0.9170   0.9170   0.9472   0.9484   0.9535   0.9608   0.9647   0.9723
     0.9799   0.9833   1.0924   1.0934   1.1164   1.1179   1.1209   1.1246
     1.1263   1.1290   1.1856   1.1866   1.2486   1.2832   1.2849   1.2862
     1.2923   1.2944   1.3625   1.6700   1.6701   1.7306   1.7365   1.7374
     1.7392   1.7396   1.7424   1.7444   1.7458   1.7875   1.7897   1.7916
     1.8018   1.8064   1.8097   1.8151   1.8653   2.0143   2.0146   2.0837
     2.0903   2.0908   2.0915   2.0926   2.0954   2.0958   2.0966   2.1027
     2.1039   2.1043   2.1223   2.1334   2.1342   2.2202   2.2215   2.2220
     2.2246   2.2265   2.2275   2.2423   2.2589   2.2796   2.3163   2.3168
     2.3170   2.3186   2.3196   2.3198   2.3628   2.3629   2.4513   2.4513
     2.4612   2.4655   2.4950   2.5009   2.5013   2.5036   2.5086   2.5089
     2.7526   2.7538   2.7627   2.7863   2.7979   2.7988   2.8227   2.8662
     2.8934   2.8961   2.9263   2.9455   2.9469   3.4310   4.4061   4.4114
     4.5241   4.5272   4.5522   4.7871   4.7889   4.9534   6.8019   7.0258
     7.0298   7.0459   7.0513   7.0896   7.1848   7.1848   7.2985   7.5189
     7.5192   7.7583   7.7584   8.2769   8.2769   8.2924   8.4061   9.1317
     9.1320   9.4708   9.5099   9.6475   9.7475   9.7488   9.7610   9.7613
     9.7964   9.9052  10.3471  10.4279  10.5127  10.7789  10.7793  10.7875
    10.7875  10.8198  10.9331  10.9851  10.9853  11.3476  11.3566  11.4074
    11.4124  11.4219  11.4669  11.6322  11.6325  11.8797  11.8832  11.9008
    11.9032  11.9067  11.9386  12.3641  12.3695  12.4069  12.4483  12.4513
    12.4571  12.6169  12.9408  12.9441  12.9623  12.9677  12.9725  13.0120
    13.2976  13.7178

          k = 0.0000 0.0510 0.0000 ( 34862 PWs)   bands (ev):

   -18.0100 -17.5936 -17.2240 -17.1431 -16.7917 -16.7436 -16.6909 -16.4816
    -9.0598  -5.6921  -5.1645  -4.8686  -4.8436  -4.7794  -4.7117  -4.6627
    -4.6091  -4.1885  -4.0902  -3.9691  -3.6681  -3.6670  -3.6147  -3.5421
    -3.1396  -3.1239  -3.0808  -3.0784  -3.0232  -2.9064  -2.8639  -2.7220
    -2.6666  -2.6609  -2.6448  -2.5704  -2.5339  -2.3707  -2.2060  -2.1249
    -1.9976  -1.9421  -1.9417  -1.8658  -1.7947  -1.7272  -1.6519  -1.6335
    -1.5908  -1.4317  -1.4088  -1.3326  -1.2683  -1.2607  -1.1132  -1.0135
    -1.0095  -0.9682  -0.9653  -0.9505  -0.9403  -0.9271  -0.8458  -0.8067
    -0.7482  -0.7430  -0.7304  -0.7190  -0.6949  -0.6456  -0.6359  -0.6143
    -0.5538  -0.5198  -0.4988  -0.4603  -0.4262  -0.4076  -0.3967  -0.3578
    -0.3468  -0.3297  -0.3200  -0.2535  -0.1832  -0.1706  -0.1613  -0.1247
    -0.0879  -0.0696  -0.0065  -0.0037   0.0036   0.0150   0.0247   0.0389
     0.0950   0.1184   0.1487   0.1981   0.2520   0.2544   0.2673   0.2815
     0.3170   0.3767   0.3806   0.4212   0.4484   0.5156   0.5239   0.5829
     0.6019   0.6146   0.6261   0.6271   0.6441   0.6591   0.6655   0.6773
     0.7101   0.7240   0.7461   0.7494   0.7619   0.7744   0.7977   0.8687
     0.8915   0.8953   0.9215   0.9338   0.9524   0.9588   0.9795   0.9832
     1.0287   1.0334   1.0517   1.0704   1.0770   1.0787   1.1117   1.1246
     1.2158   1.2254   1.2517   1.2557   1.2575   1.2888   1.3166   1.3726
     1.3895   1.3900   1.3929   1.4092   1.4175   1.4778   1.5545   1.5642
     1.5797   1.6430   1.6455   1.6583   1.6613   1.6777   1.7319   1.7475
     1.7955   1.8144   1.8237   1.8353   1.8425   1.8604   1.8665   1.8836
     1.8849   1.9148   1.9306   1.9880   2.0775   2.0874   2.0893   2.0942
     2.1068   2.1124   2.2065   2.2102   2.2151   2.2302   2.2764   2.2879
     2.3150   2.3421   2.3426   2.3726   2.3952   2.3989   2.4035   2.4113
     2.4300   2.4698   2.4782   2.5206   2.5228   2.5247   2.5444   2.5466
     2.5532   2.5646   2.5926   2.6109   2.6630   2.6706   2.6996   2.7213
     2.7369   2.7546   2.8234   2.8734   2.9219   2.9516   2.9950   3.1291
     3.1488   3.1945   3.4712   3.6001   3.6839   3.7426   3.7910   4.1546
     4.2090   4.6006   4.6212   4.8852   4.8883   5.1859   5.4627   5.5883
     5.6687   5.7453   5.7830   6.3907   6.4717   7.1736   7.3079   7.3320
     7.8044   8.2099   8.2436   8.3457   8.5367   8.5719   8.6790   8.7839
     8.9323   9.2638   9.2895   9.4888   9.5577   9.5751   9.5971   9.6027
     9.6657   9.9039   9.9191  10.3770  10.4229  10.4920  10.5218  10.5331
    10.5895  10.8387  10.8879  10.9387  11.0295  11.0687  11.1607  11.1671
    11.5899  11.6008  11.8310  11.8557  11.8964  11.9673  12.0241  12.3196
    12.3300  12.5064  12.5231  12.7005  12.8613  13.0225  13.0411  13.1919
    13.2379  13.2991  13.3218  13.3280  13.6952  13.7400  13.7512  13.7717
    13.7773  13.8052

          k = 0.0442 0.0255 0.0000 ( 34862 PWs)   bands (ev):

   -18.0103 -17.5927 -17.2238 -17.1440 -16.7936 -16.7436 -16.6890 -16.4816
    -9.0598  -5.6920  -5.1635  -4.8684  -4.8440  -4.7793  -4.7108  -4.6645
    -4.6093  -4.1886  -4.0895  -3.9684  -3.6680  -3.6674  -3.6144  -3.5414
    -3.1402  -3.1233  -3.0806  -3.0804  -3.0220  -2.9084  -2.8611  -2.7197
    -2.6661  -2.6614  -2.6465  -2.5692  -2.5347  -2.3739  -2.2083  -2.1242
    -1.9970  -1.9422  -1.9409  -1.8656  -1.7963  -1.7285  -1.6529  -1.6308
    -1.5922  -1.4328  -1.4083  -1.3293  -1.2677  -1.2598  -1.1082  -1.0135
    -1.0095  -0.9702  -0.9675  -0.9503  -0.9433  -0.9270  -0.8462  -0.8072
    -0.7508  -0.7447  -0.7329  -0.7193  -0.6948  -0.6441  -0.6360  -0.6152
    -0.5558  -0.5207  -0.5000  -0.4583  -0.4259  -0.4085  -0.3952  -0.3573
    -0.3476  -0.3300  -0.3221  -0.2549  -0.1847  -0.1685  -0.1599  -0.1251
    -0.0863  -0.0693  -0.0083  -0.0019   0.0019   0.0155   0.0222   0.0405
     0.0931   0.1203   0.1545   0.2004   0.2479   0.2498   0.2638   0.2785
     0.3150   0.3831   0.3865   0.4183   0.4470   0.5139   0.5267   0.5842
     0.6033   0.6134   0.6262   0.6281   0.6449   0.6606   0.6665   0.6767
     0.7100   0.7243   0.7500   0.7518   0.7650   0.7743   0.8071   0.8702
     0.8928   0.8968   0.9220   0.9348   0.9530   0.9586   0.9795   0.9815
     1.0317   1.0343   1.0522   1.0697   1.0770   1.0785   1.1104   1.1232
     1.2175   1.2199   1.2483   1.2532   1.2560   1.2875   1.3148   1.3732
     1.3907   1.3911   1.3919   1.4119   1.4201   1.4788   1.5579   1.5668
     1.5795   1.6423   1.6449   1.6572   1.6602   1.6777   1.7323   1.7543
     1.7870   1.8143   1.8243   1.8358   1.8413   1.8569   1.8654   1.8836
     1.8843   1.9139   1.9305   1.9864   2.0795   2.0881   2.0902   2.0947
     2.1085   2.1143   2.2061   2.2101   2.2143   2.2287   2.2764   2.2875
     2.3149   2.3424   2.3429   2.3727   2.3965   2.4002   2.4055   2.4123
     2.4321   2.4667   2.4765   2.5204   2.5227   2.5236   2.5436   2.5452
     2.5514   2.5642   2.5919   2.6130   2.6631   2.6692   2.6983   2.7211
     2.7366   2.7540   2.8223   2.8723   2.9212   2.9546   2.9943   3.1291
     3.1490   3.1963   3.4756   3.6034   3.6869   3.7348   3.7849   4.1476
     4.2077   4.5987   4.6199   4.8846   4.8878   5.1910   5.4539   5.5898
     5.6706   5.7481   5.7845   6.3861   6.4676   7.1736   7.3149   7.3382
     7.8178   8.2085   8.2438   8.3444   8.5321   8.5693   8.6753   8.7840
     8.9428   9.2633   9.2897   9.4890   9.5568   9.5780   9.5943   9.6099
     9.6728   9.9039   9.9190  10.3759  10.4203  10.4848  10.5145  10.5251
    10.5881  10.8592  10.8895  10.9406  11.0288  11.0686  11.1594  11.1641
    11.5834  11.5914  11.8280  11.8500  11.8936  11.9673  12.0244  12.3137
    12.3203  12.5101  12.5264  12.7069  12.8613  13.0203  13.0386  13.2028
    13.2435  13.2851  13.3211  13.3260  13.7037  13.7418  13.7607  13.7785
    13.7838  13.8100

          k = 0.0442 0.0765 0.0000 ( 34881 PWs)   bands (ev):

   -17.8180 -17.7958 -17.4270 -16.9071 -16.8691 -16.6626 -16.6033 -16.5921
    -9.0464  -5.1540  -5.0972  -5.0487  -4.9706  -4.9664  -4.9105  -4.5661
    -4.4504  -4.3531  -4.2159  -4.2078  -4.0767  -3.4853  -3.4799  -3.4658
    -3.1576  -3.1096  -3.0034  -2.9811  -2.9411  -2.8985  -2.8739  -2.8138
    -2.8050  -2.7083  -2.6734  -2.6635  -2.4977  -2.4307  -2.2675  -1.9689
    -1.9611  -1.9137  -1.7690  -1.7629  -1.7268  -1.5223  -1.4921  -1.4909
    -1.4641  -1.4596  -1.4095  -1.3850  -1.3845  -1.3514  -1.1771  -1.1510
    -1.1273  -1.0740  -1.0349  -1.0095  -0.9573  -0.9334  -0.9109  -0.8517
    -0.8291  -0.8257  -0.7016  -0.6532  -0.6416  -0.6273  -0.6051  -0.5815
    -0.5762  -0.5570  -0.4961  -0.4825  -0.4592  -0.3716  -0.2582  -0.2505
    -0.2402  -0.2272  -0.2200  -0.2090  -0.1960  -0.1913  -0.1774  -0.1667
    -0.1218  -0.0992  -0.0956  -0.0933  -0.0751  -0.0419  -0.0399   0.1479
     0.1908   0.1986   0.2039   0.2069   0.2088   0.2382   0.3475   0.3508
     0.3559   0.3845   0.3912   0.3947   0.4054   0.4183   0.4316   0.5796
     0.5819   0.5821   0.5994   0.6260   0.6343   0.6377   0.6521   0.6525
     0.7037   0.7105   0.7152   0.7258   0.7705   0.7779   0.7972   0.7993
     0.8250   0.8366   0.8983   0.9628   0.9953   1.0066   1.0296   1.0589
     1.0596   1.0625   1.0674   1.0684   1.1521   1.1566   1.1741   1.1958
     1.2268   1.2331   1.2453   1.2583   1.2668   1.2678   1.2724   1.2732
     1.4009   1.4031   1.4077   1.4282   1.4865   1.4991   1.5711   1.5845
     1.6028   1.6038   1.6047   1.6080   1.6336   1.6713   1.6750   1.6783
     1.6888   1.6953   1.7038   1.7713   1.7827   1.8634   1.8788   1.8813
     1.8845   1.8905   1.8938   1.9124   2.0205   2.0299   2.0575   2.1421
     2.1533   2.1547   2.1716   2.1743   2.2028   2.2353   2.2425   2.2707
     2.3537   2.3541   2.3563   2.4460   2.4508   2.4526   2.4684   2.4780
     2.4878   2.4933   2.5091   2.5226   2.5459   2.5481   2.5538   2.5594
     2.5717   2.5838   2.6102   2.6132   2.6207   2.6536   2.6604   2.6736
     2.7454   2.8009   2.8484   3.0389   3.0959   3.1493   3.2685   3.2693
     3.2740   3.5089   3.8003   3.8187   3.9682   4.1986   4.2099   4.2358
     4.4684   4.4869   4.7297   4.7697   4.7750   5.0525   5.0668   5.0818
     5.6056   5.6141   5.6181   5.6244   5.6345   5.7117   7.7596   7.7771
     7.8459   7.9005   7.9030   7.9297   8.1721   8.2132   8.3031   8.9046
     8.9214   8.9632   9.2005   9.2155   9.2642   9.5180   9.5188   9.5680
     9.5770   9.6005   9.6663  10.5334  10.5420  10.6314  10.7828  10.8117
    10.8730  11.0512  11.0870  11.1369  11.6060  11.6110  11.7262  11.7832
    11.7931  11.8370  12.0969  12.1008  12.1046  12.3352  12.3533  12.3830
    12.5983  12.6127  12.6256  12.9115  12.9325  12.9868  13.2455  13.2629
    13.2907  13.4325  13.4395  13.5913  13.7831  13.8280  13.8566  13.8848
    13.8931  13.9572

          k = 0.0442-0.0255 0.0000 ( 34862 PWs)   bands (ev):

   -18.0100 -17.5939 -17.2240 -17.1429 -16.7914 -16.7437 -16.6913 -16.4816
    -9.0598  -5.6920  -5.1644  -4.8681  -4.8438  -4.7792  -4.7109  -4.6632
    -4.6089  -4.1885  -4.0903  -3.9687  -3.6684  -3.6671  -3.6145  -3.5424
    -3.1408  -3.1228  -3.0806  -3.0796  -3.0227  -2.9076  -2.8635  -2.7216
    -2.6673  -2.6613  -2.6467  -2.5703  -2.5344  -2.3696  -2.2039  -2.1242
    -1.9975  -1.9422  -1.9415  -1.8661  -1.7956  -1.7276  -1.6514  -1.6340
    -1.5911  -1.4320  -1.4092  -1.3313  -1.2679  -1.2602  -1.1112  -1.0137
    -1.0096  -0.9698  -0.9657  -0.9502  -0.9413  -0.9268  -0.8459  -0.8067
    -0.7490  -0.7436  -0.7311  -0.7192  -0.6948  -0.6449  -0.6357  -0.6144
    -0.5545  -0.5199  -0.4990  -0.4598  -0.4258  -0.4075  -0.3961  -0.3572
    -0.3468  -0.3302  -0.3205  -0.2540  -0.1839  -0.1699  -0.1608  -0.1249
    -0.0872  -0.0693  -0.0074  -0.0029   0.0028   0.0151   0.0236   0.0393
     0.0943   0.1190   0.1507   0.1988   0.2505   0.2532   0.2662   0.2806
     0.3165   0.3782   0.3833   0.4198   0.4482   0.5153   0.5244   0.5833
     0.6022   0.6142   0.6260   0.6275   0.6442   0.6596   0.6656   0.6773
     0.7102   0.7240   0.7465   0.7516   0.7628   0.7738   0.8005   0.8690
     0.8915   0.8959   0.9217   0.9343   0.9522   0.9591   0.9784   0.9838
     1.0297   1.0336   1.0519   1.0704   1.0770   1.0787   1.1113   1.1243
     1.2172   1.2230   1.2504   1.2555   1.2568   1.2880   1.3160   1.3730
     1.3900   1.3904   1.3927   1.4098   1.4182   1.4785   1.5551   1.5653
     1.5796   1.6426   1.6452   1.6576   1.6609   1.6777   1.7320   1.7491
     1.7934   1.8142   1.8239   1.8354   1.8420   1.8593   1.8660   1.8831
     1.8849   1.9145   1.9308   1.9877   2.0781   2.0877   2.0896   2.0944
     2.1073   2.1131   2.2064   2.2103   2.2149   2.2297   2.2764   2.2877
     2.3148   2.3422   2.3428   2.3728   2.3955   2.3993   2.4037   2.4118
     2.4307   2.4689   2.4777   2.5201   2.5228   2.5247   2.5442   2.5463
     2.5527   2.5644   2.5925   2.6115   2.6631   2.6704   2.6994   2.7212
     2.7370   2.7548   2.8225   2.8734   2.9219   2.9520   2.9939   3.1290
     3.1489   3.1953   3.4728   3.6011   3.6848   3.7406   3.7888   4.1518
     4.2081   4.6000   4.6210   4.8849   4.8883   5.1875   5.4602   5.5885
     5.6690   5.7461   5.7839   6.3892   6.4704   7.1736   7.3094   7.3346
     7.8100   8.2092   8.2437   8.3451   8.5344   8.5714   8.6779   8.7839
     8.9353   9.2637   9.2894   9.4890   9.5575   9.5763   9.5962   9.6056
     9.6676   9.9038   9.9190  10.3765  10.4218  10.4896  10.5176  10.5326
    10.5896  10.8467  10.8883  10.9395  11.0292  11.0688  11.1587  11.1673
    11.5837  11.6008  11.8281  11.8544  11.8959  11.9672  12.0242  12.3138
    12.3300  12.5076  12.5243  12.7031  12.8613  13.0215  13.0405  13.1943
    13.2409  13.2953  13.3216  13.3272  13.6972  13.7404  13.7542  13.7720
    13.7814  13.8068

     the Fermi energy is     2.3785 ev

!    total energy              =   -3903.66477238 Ry
     Harris-Foulkes estimate   =   -3903.66476663 Ry
     estimated scf accuracy    <       0.00000018 Ry

     The total energy is the sum of the following terms:

     one-electron contribution =  -26688.03456858 Ry
     hartree contribution      =   13767.60771314 Ry
     xc contribution           =   -1580.27456232 Ry
     ewald contribution        =   10597.20052607 Ry
     electric field correction =       0.00179553 Ry
     smearing contrib. (-TS)   =      -0.16567622 Ry

     total magnetization       =    17.09 Bohr mag/cell
     absolute magnetization    =    19.86 Bohr mag/cell

     convergence has been achieved in  15 iterations

     Forces acting on atoms (Ry/au):


     negative rho (up, down):  3.436E-04 3.060E-04
     atom    1 type  1   force =    -0.00007602    0.00002672    0.00415284
     atom    2 type  1   force =    -0.00031883    0.00051300   -0.00517858
     atom    3 type  1   force =     0.00017407    0.00018343   -0.00015495
     atom    4 type  1   force =     0.00069600   -0.00010290   -0.00032906
     atom    5 type  1   force =     0.00012781    0.00004349    0.00442774
     atom    6 type  1   force =     0.00081163    0.00030073   -0.00388778
     atom    7 type  1   force =     0.00024193    0.00029589   -0.00031429
     atom    8 type  1   force =    -0.00020736    0.00168319   -0.00005629
     atom    9 type  1   force =    -0.00001772   -0.00007254    0.00415985
     atom   10 type  1   force =     0.00045212   -0.00087767   -0.00515174
     atom   11 type  1   force =     0.00017963    0.00023484   -0.00026872
     atom   12 type  1   force =     0.00026012    0.00085945    0.00059130
     atom   13 type  1   force =     0.00001410    0.00000851    0.00417591
     atom   14 type  1   force =    -0.00029603   -0.00037296   -0.00395648
     atom   15 type  1   force =     0.00009602    0.00001649   -0.00030729
     atom   16 type  1   force =    -0.00016020    0.00039843   -0.00035087
     atom   17 type  1   force =    -0.00005382    0.00009857    0.00388408
     atom   18 type  1   force =    -0.00164523    0.00021175   -0.00391823
     atom   19 type  1   force =     0.00036246    0.00015967   -0.00020921
     atom   20 type  1   force =     0.00082951    0.00057190   -0.00079381
     atom   21 type  1   force =     0.00009550   -0.00011648    0.00388245
     atom   22 type  1   force =    -0.00054771   -0.00173616   -0.00397660
     atom   23 type  1   force =     0.00029851    0.00023887   -0.00044721
     atom   24 type  1   force =    -0.00022311   -0.00056595   -0.00078348
     atom   25 type  1   force =     0.00003313   -0.00016709    0.00439813
     atom   26 type  1   force =    -0.00044625   -0.00024715   -0.00419451
     atom   27 type  1   force =     0.00001171    0.00006129   -0.00017893
     atom   28 type  1   force =    -0.00067307   -0.00017081    0.00057576
     atom   29 type  1   force =    -0.00012051    0.00007862    0.00439693
     atom   30 type  1   force =    -0.00030239   -0.00050383   -0.00412310
     atom   31 type  1   force =     0.00008698    0.00001039   -0.00004321
     atom   32 type  1   force =     0.00070470    0.00037046   -0.00010833
     atom   33 type  1   force =    -0.00012614   -0.00007421    0.00381527
     atom   34 type  1   force =    -0.00113565   -0.00082008   -0.00539006
     atom   35 type  1   force =     0.00021671    0.00016670    0.00007728
     atom   36 type  1   force =     0.00049542    0.00034493   -0.00012550
     atom   37 type  2   force =     0.00004434    0.00021710    0.00075316
     atom   38 type  2   force =    -0.00023459   -0.00064360    0.00001497
     atom   39 type  2   force =    -0.00005005   -0.00076020    0.00028770
     atom   40 type  2   force =     0.00131975    0.00103601    0.00041932
     atom   41 type  2   force =    -0.00022487   -0.00023710    0.00091259
     atom   42 type  2   force =     0.00003141    0.00010638    0.00074522
     atom   43 type  2   force =     0.00014255   -0.00024627    0.00057502
     atom   44 type  2   force =    -0.00037384   -0.00018486    0.00083759
     atom   45 type  3   force =    -0.00049273   -0.00033693    0.00116511

     Total force =     0.019103     Total SCF correction =     0.001435
 !ASE

     Writing output data file calc.save
 
     init_run     :     30.71s CPU     35.18s WALL (       1 calls)
     electrons    :  32203.97s CPU  36979.02s WALL (      13 calls)
     update_pot   :     37.88s CPU     39.61s WALL (      12 calls)
     forces       :    646.86s CPU    667.90s WALL (      13 calls)

     Called by init_run:
     wfcinit      :     20.47s CPU     24.36s WALL (       1 calls)
     potinit      :      1.12s CPU      1.19s WALL (       1 calls)

     Called by electrons:
     c_bands      :  21623.21s CPU  25294.40s WALL (     448 calls)
     sum_band     :   7712.23s CPU   8615.62s WALL (     448 calls)
     v_of_rho     :    154.00s CPU    180.08s WALL (     461 calls)
     newd         :   2749.20s CPU   2916.95s WALL (     461 calls)
     mix_rho      :     30.57s CPU     37.33s WALL (     448 calls)

     Called by c_bands:
     init_us_2    :    112.38s CPU    118.58s WALL (    9100 calls)
     cegterg      :  20992.80s CPU  24637.25s WALL (    4480 calls)

     Called by *egterg:
     h_psi        :  10639.91s CPU  13488.87s WALL (   11777 calls)
     s_psi        :   1788.97s CPU   1856.68s WALL (   11777 calls)
     g_psi        :     41.33s CPU     42.38s WALL (    7287 calls)
     cdiaghg      :   3684.68s CPU   3763.45s WALL (   11647 calls)

     Called by h_psi:
     add_vuspsi   :   1805.31s CPU   1867.14s WALL (   11777 calls)

     General routines
     calbec       :   2821.95s CPU   2887.48s WALL (   16387 calls)
     fft          :    143.38s CPU    169.66s WALL (   14408 calls)
     ffts         :      2.22s CPU      3.06s WALL (    1818 calls)
     fftw         :   5809.08s CPU   9154.28s WALL ( 7231270 calls)
     interpolate  :     17.27s CPU     25.07s WALL (    1818 calls)
     davcio       :      0.02s CPU      0.66s WALL (      10 calls)
 
     Parallel routines
     fft_scatter  :   3427.01s CPU   5378.41s WALL ( 7247496 calls)
 
     PWSCF        :     9h 9m CPU       10h30m WALL

 
   This run was terminated on:   7:40:55  21Apr2017            

=------------------------------------------------------------------------------=
   JOB DONE.
=------------------------------------------------------------------------------=
