  python dir          : /home/vossj/suncat/lib/python2.7/site-packages/espresso
  espresso dir        : /home/vossj/suncat/esdld/espresso-dynpy-beef/bin
  pseudo dir          : /home/alatimer/bin/psp/esp_psp_w_gbrvRu/
  ase-espresso py git : ffa2778-git



     Program PWSCF v.5.1rc2 (svn rev. ) starts on 20Apr2018 at 13:26: 2 

     This program is part of the open-source Quantum ESPRESSO suite
     for quantum simulation of materials; please cite
         "P. Giannozzi et al., J. Phys.:Condens. Matter 21 395502 (2009);
          URL http://www.quantum-espresso.org", 
     in publications or presentations arising from this work. More details at
     http://www.quantum-espresso.org/quote

     Parallel version (MPI), running on    16 processors
     R & G space division:  proc/nbgrp/npool/nimage =      16
     Reading input from pw.inp
     Message from routine read_cards :
     DEPRECATED: no units specified in CELL_PARAMETERS card

     Current dimensions of program PWSCF are:
     Max number of different atomic species (ntypx) = 10
     Max number of k-points (npk) =  40000
     Max angular momentum in pseudopotentials (lmaxx) =  3
     Presently no symmetry can be used with electric field


     IMPORTANT: XC functional enforced from input :
     Exchange-correlation      = RPBE ( 1  4 28  4 0)
     Any further DFT definition will be discarded
     Please, verify this is what you really want


     Subspace diagonalization in iterative solution of the eigenvalue problem:
     a serial algorithm will be used

 
     Parallelization info
     --------------------
     sticks:   dense  smooth     PW     G-vecs:    dense   smooth      PW
     Min         367     147     39               123943    31337    4337
     Max         368     148     40               123966    31384    4354
     Sum        5877    2361    631              1983193   501747   69475
 
     Generating pointlists ...
     new r_m :   0.4125 (alat units)  0.7795 (a.u.) for type    1
     new r_m :   0.4125 (alat units)  0.7795 (a.u.) for type    2


     bravais-lattice index     =            0
     lattice parameter (alat)  =       1.8897  a.u.
     unit-cell volume          =   12682.1321 (a.u.)^3
     number of atoms/cell      =           37
     number of atomic types    =            2
     number of electrons       =       328.00
     number of Kohn-Sham states=          264
     kinetic-energy cutoff     =      44.0992  Ry
     charge density cutoff     =     440.9919  Ry
     convergence threshold     =      7.3E-07
     mixing beta               =       0.1000
     number of iterations used =           10  plain     mixing
     Exchange-correlation      = RPBE ( 1  4 28  4 0)
     nstep                     =           50


     celldm(1)=   1.889726  celldm(2)=   0.000000  celldm(3)=   0.000000
     celldm(4)=   0.000000  celldm(5)=   0.000000  celldm(6)=   0.000000

     crystal axes: (cart. coord. in units of alat)
               a(1) = (   6.191574   0.000000   0.000000 )  
               a(2) = (   0.000000   7.583099   0.000000 )  
               a(3) = (   0.000000   0.000000  40.026524 )  

     reciprocal axes: (cart. coord. in units 2 pi/alat)
               b(1) = (  0.161510  0.000000  0.000000 )  
               b(2) = (  0.000000  0.131872  0.000000 )  
               b(3) = (  0.000000  0.000000  0.024983 )  


     PseudoPot. # 1 for Co read from file:
     /home/alatimer/bin/psp/esp_psp_w_gbrvRu/Co.UPF
     MD5 check sum: f36dda9fe147c5f42efc2a4f7ec0da3d
     Pseudo is Ultrasoft + core correction, Zval =  9.0
     Generated by new atomic code, or converted to UPF format
     Using radial grid of  937 points,  3 beta functions with: 
                l(1) =   1
                l(2) =   2
                l(3) =   2
     Q(r) pseudized with  8 coefficients,  rinner =    1.000   1.000   1.000
                                                       1.000   1.000

     PseudoPot. # 2 for  C read from file:
     /home/alatimer/bin/psp/esp_psp_w_gbrvRu/C.UPF
     MD5 check sum: ab446d787031eba755f1d5ee46644bb0
     Pseudo is Ultrasoft + core correction, Zval =  4.0
     Generated using "atomic" code by A. Dal Corso  v.5.0.2 svn rev. 9415
     Using radial grid of 1073 points,  4 beta functions with: 
                l(1) =   0
                l(2) =   0
                l(3) =   1
                l(4) =   1
     Q(r) pseudized with 0 coefficients 


     atomic species   valence    mass     pseudopotential
        Co1            9.00    58.93320     Co( 1.00)
        C1             4.00    12.01100      C( 1.00)

     Starting magnetic structure 
     atomic species   magnetization
        Co1          0.444
        C1           1.000

     No symmetry found



   Cartesian axes

     site n.     atom                  positions (alat units)
         1           Co1 tau(   1) = (   4.1277161   1.2638498  24.0265242  )
         2           Co1 tau(   2) = (   4.1277161   3.7915494  24.0265242  )
         3           Co1 tau(   3) = (   4.1277161   6.3192490  24.0265242  )
         4           Co1 tau(   4) = (   2.0638581   0.0000000  23.2968402  )
         5           Co1 tau(   5) = (   2.0638581   2.5276996  23.2968402  )
         6           Co1 tau(   6) = (   2.0638581   5.0553992  23.2968402  )
         7           Co1 tau(   7) = (   0.0000000   1.2638498  22.5671562  )
         8           Co1 tau(   8) = (   0.0000000   3.7915494  22.5671562  )
         9           Co1 tau(   9) = (   0.0000000   6.3192490  22.5671562  )
        10           Co1 tau(  10) = (   4.1277161   0.0000000  21.8374721  )
        11           Co1 tau(  11) = (   4.1277161   2.5276996  21.8374721  )
        12           Co1 tau(  12) = (   4.1277161   5.0553992  21.8374721  )
        13           Co1 tau(  13) = (   2.0638581   1.2638498  21.1077881  )
        14           Co1 tau(  14) = (   2.0638581   3.7915494  21.1077881  )
        15           Co1 tau(  15) = (   2.0638581   6.3192490  21.1077881  )
        16           Co1 tau(  16) = (   0.0000000   0.0000000  20.3781041  )
        17           Co1 tau(  17) = (   0.0000000   2.5276996  20.3781041  )
        18           Co1 tau(  18) = (   0.0000000   5.0553992  20.3781041  )
        19           Co1 tau(  19) = (   4.1277161   1.2638498  19.6484201  )
        20           Co1 tau(  20) = (   4.1277161   3.7915494  19.6484201  )
        21           Co1 tau(  21) = (   4.1277161   6.3192490  19.6484201  )
        22           Co1 tau(  22) = (   2.0638581   0.0000000  18.9187361  )
        23           Co1 tau(  23) = (   2.0638581   2.5276996  18.9187361  )
        24           Co1 tau(  24) = (   2.0638581   5.0553992  18.9187361  )
        25           Co1 tau(  25) = (   0.0000000   1.2638498  18.1890521  )
        26           Co1 tau(  26) = (   0.0000000   3.7915494  18.1890521  )
        27           Co1 tau(  27) = (   0.0000000   6.3192490  18.1890521  )
        28           Co1 tau(  28) = (   4.1277161   0.0000000  17.4593680  )
        29           Co1 tau(  29) = (   4.1277161   2.5276996  17.4593680  )
        30           Co1 tau(  30) = (   4.1277161   5.0553992  17.4593680  )
        31           Co1 tau(  31) = (   2.0638581   1.2638498  16.7296840  )
        32           Co1 tau(  32) = (   2.0638581   3.7915494  16.7296840  )
        33           Co1 tau(  33) = (   2.0638581   6.3192490  16.7296840  )
        34           Co1 tau(  34) = (   0.0000000   0.0000000  16.0000000  )
        35           Co1 tau(  35) = (   0.0000000   2.5276996  16.0000000  )
        36           Co1 tau(  36) = (   0.0000000   5.0553992  16.0000000  )
        37           C1  tau(  37) = (   2.0638581   0.0000000  25.0968402  )

     number of k points=    10  Fermi-Dirac smearing, width (Ry)=  0.0073
                       cart. coord. in units 2pi/alat
        k(    1) = (   0.0000000   0.0000000   0.0000000), wk =   0.1111111
        k(    2) = (   0.0000000   0.0439574   0.0000000), wk =   0.2222222
        k(    3) = (   0.0538366   0.0000000   0.0000000), wk =   0.2222222
        k(    4) = (   0.0538366   0.0439574   0.0000000), wk =   0.2222222
        k(    5) = (   0.0538366  -0.0439574   0.0000000), wk =   0.2222222
        k(    6) = (   0.0000000   0.0000000   0.0000000), wk =   0.1111111
        k(    7) = (   0.0000000   0.0439574   0.0000000), wk =   0.2222222
        k(    8) = (   0.0538366   0.0000000   0.0000000), wk =   0.2222222
        k(    9) = (   0.0538366   0.0439574   0.0000000), wk =   0.2222222
        k(   10) = (   0.0538366  -0.0439574   0.0000000), wk =   0.2222222

     Dense  grid:  1983193 G-vectors     FFT dimensions: (  80,  96, 512)

     Smooth grid:   501747 G-vectors     FFT dimensions: (  50,  64, 320)

     Largest allocated arrays     est. size (Mb)     dimensions
        Kohn-Sham Wavefunctions        15.94 Mb     (    3956,  264)
        NL pseudopotentials            28.73 Mb     (    3956,  476)
        Each V/rho on FFT grid          7.50 Mb     (  245760,   2)
        Each G-vector array             0.95 Mb     (  123962)
        G-vector shells                 0.41 Mb     (   54356)
     Largest temporary arrays     est. size (Mb)     dimensions
        Auxiliary wavefunctions        63.74 Mb     (    3956, 1056)
        Each subspace H/S matrix       17.02 Mb     (    1056, 1056)
        Each <psi_i|beta_j> matrix      1.92 Mb     (     476,  264)
        Arrays for rho mixing          37.50 Mb     (  245760,   10)

     Initial potential from superposition of free atoms
     Check: negative starting charge=(component1):   -0.004244
     Check: negative starting charge=(component2):   -0.001664

     starting charge  327.99028, renormalised to  328.00000

     negative rho (up, down):  4.244E-03 1.664E-03
 
     Adding external electric field

     Computed dipole along edir(3) : 
        Dipole               -0.0007 Ry au,         -0.0019 Debye
        Dipole field         -0.0000 Ry au
 
        Potential amp.        0.0001 Ry
        Total length         73.7482 bohr
 
 
     Adding external electric field

     Computed dipole along edir(3) : 
        Dipole               -0.0007 Ry au,         -0.0019 Debye
        Dipole field         -0.0000 Ry au
 
        Potential amp.        0.0001 Ry
        Total length         73.7482 bohr
 
     Starting wfc are  328 randomized atomic wfcs

     total cpu time spent up to now is       48.9 secs

     Self-consistent Calculation

     iteration #  1     ecut=    44.10 Ry     beta=0.10
     Davidson diagonalization with overlap
     ethr =  1.00E-02,  avg # of iterations =  7.7

     negative rho (up, down):  4.135E-03 1.896E-03
 
     Adding external electric field

     Computed dipole along edir(3) : 
        Dipole               -0.3222 Ry au,         -0.8189 Debye
        Dipole field         -0.0003 Ry au
 
        Potential amp.        0.0471 Ry
        Total length         73.7482 bohr
 
 
     Adding external electric field

     Computed dipole along edir(3) : 
        Dipole               -0.3222 Ry au,         -0.8189 Debye
        Dipole field         -0.0003 Ry au
 
        Potential amp.        0.0471 Ry
        Total length         73.7482 bohr
 
 
     Magnetic moment per site:
     atom:    1    charge:    3.1729    magn:    1.4258    constr:    0.0000
     atom:    2    charge:    3.1744    magn:    1.4239    constr:    0.0000
     atom:    3    charge:    3.1729    magn:    1.4258    constr:    0.0000
     atom:    4    charge:    3.2281    magn:    1.3635    constr:    0.0000
     atom:    5    charge:    3.2019    magn:    1.3979    constr:    0.0000
     atom:    6    charge:    3.2019    magn:    1.3979    constr:    0.0000
     atom:    7    charge:    3.2151    magn:    1.3837    constr:    0.0000
     atom:    8    charge:    3.2154    magn:    1.3833    constr:    0.0000
     atom:    9    charge:    3.2151    magn:    1.3837    constr:    0.0000
     atom:   10    charge:    3.2299    magn:    1.3692    constr:    0.0000
     atom:   11    charge:    3.2295    magn:    1.3691    constr:    0.0000
     atom:   12    charge:    3.2294    magn:    1.3691    constr:    0.0000
     atom:   13    charge:    3.2301    magn:    1.3693    constr:    0.0000
     atom:   14    charge:    3.2299    magn:    1.3696    constr:    0.0000
     atom:   15    charge:    3.2301    magn:    1.3692    constr:    0.0000
     atom:   16    charge:    3.2295    magn:    1.3697    constr:    0.0000
     atom:   17    charge:    3.2303    magn:    1.3692    constr:    0.0000
     atom:   18    charge:    3.2303    magn:    1.3692    constr:    0.0000
     atom:   19    charge:    3.2297    magn:    1.3693    constr:    0.0000
     atom:   20    charge:    3.2293    magn:    1.3692    constr:    0.0000
     atom:   21    charge:    3.2297    magn:    1.3693    constr:    0.0000
     atom:   22    charge:    3.2303    magn:    1.3698    constr:    0.0000
     atom:   23    charge:    3.2299    magn:    1.3698    constr:    0.0000
     atom:   24    charge:    3.2298    magn:    1.3697    constr:    0.0000
     atom:   25    charge:    3.2298    magn:    1.3689    constr:    0.0000
     atom:   26    charge:    3.2299    magn:    1.3690    constr:    0.0000
     atom:   27    charge:    3.2298    magn:    1.3689    constr:    0.0000
     atom:   28    charge:    3.2155    magn:    1.3823    constr:    0.0000
     atom:   29    charge:    3.2153    magn:    1.3823    constr:    0.0000
     atom:   30    charge:    3.2153    magn:    1.3823    constr:    0.0000
     atom:   31    charge:    3.2023    magn:    1.3963    constr:    0.0000
     atom:   32    charge:    3.2022    magn:    1.3961    constr:    0.0000
     atom:   33    charge:    3.2023    magn:    1.3963    constr:    0.0000
     atom:   34    charge:    3.1740    magn:    1.4240    constr:    0.0000
     atom:   35    charge:    3.1740    magn:    1.4240    constr:    0.0000
     atom:   36    charge:    3.1740    magn:    1.4240    constr:    0.0000
     atom:   37    charge:    0.5618    magn:    0.5329    constr:    0.0000

     total cpu time spent up to now is      200.0 secs

     total energy              =   -2891.41174732 Ry
     Harris-Foulkes estimate   =   -2895.00806118 Ry
     estimated scf accuracy    <      23.69514613 Ry

     total magnetization       =    76.70 Bohr mag/cell
     absolute magnetization    =    76.73 Bohr mag/cell

     iteration #  2     ecut=    44.10 Ry     beta=0.10
     Davidson diagonalization with overlap
     ethr =  7.22E-03,  avg # of iterations =  2.9

     negative rho (up, down):  5.222E-03 3.098E-03
 
     Adding external electric field

     Computed dipole along edir(3) : 
        Dipole                0.3855 Ry au,          0.9799 Debye
        Dipole field          0.0004 Ry au
 
        Potential amp.       -0.0563 Ry
        Total length         73.7482 bohr
 
 
     Adding external electric field

     Computed dipole along edir(3) : 
        Dipole                0.3855 Ry au,          0.9799 Debye
        Dipole field          0.0004 Ry au
 
        Potential amp.       -0.0563 Ry
        Total length         73.7482 bohr
 
 
     Magnetic moment per site:
     atom:    1    charge:    3.2009    magn:    1.3971    constr:    0.0000
     atom:    2    charge:    3.2023    magn:    1.3950    constr:    0.0000
     atom:    3    charge:    3.2009    magn:    1.3971    constr:    0.0000
     atom:    4    charge:    3.2358    magn:    1.3466    constr:    0.0000
     atom:    5    charge:    3.2210    magn:    1.3742    constr:    0.0000
     atom:    6    charge:    3.2210    magn:    1.3742    constr:    0.0000
     atom:    7    charge:    3.2188    magn:    1.3717    constr:    0.0000
     atom:    8    charge:    3.2203    magn:    1.3699    constr:    0.0000
     atom:    9    charge:    3.2188    magn:    1.3717    constr:    0.0000
     atom:   10    charge:    3.2150    magn:    1.3696    constr:    0.0000
     atom:   11    charge:    3.2152    magn:    1.3694    constr:    0.0000
     atom:   12    charge:    3.2152    magn:    1.3694    constr:    0.0000
     atom:   13    charge:    3.2070    magn:    1.3723    constr:    0.0000
     atom:   14    charge:    3.2080    magn:    1.3730    constr:    0.0000
     atom:   15    charge:    3.2070    magn:    1.3723    constr:    0.0000
     atom:   16    charge:    3.2035    magn:    1.3724    constr:    0.0000
     atom:   17    charge:    3.2042    magn:    1.3719    constr:    0.0000
     atom:   18    charge:    3.2042    magn:    1.3719    constr:    0.0000
     atom:   19    charge:    3.2046    magn:    1.3723    constr:    0.0000
     atom:   20    charge:    3.2047    magn:    1.3725    constr:    0.0000
     atom:   21    charge:    3.2046    magn:    1.3723    constr:    0.0000
     atom:   22    charge:    3.2106    magn:    1.3722    constr:    0.0000
     atom:   23    charge:    3.2104    magn:    1.3721    constr:    0.0000
     atom:   24    charge:    3.2104    magn:    1.3721    constr:    0.0000
     atom:   25    charge:    3.2206    magn:    1.3653    constr:    0.0000
     atom:   26    charge:    3.2208    magn:    1.3654    constr:    0.0000
     atom:   27    charge:    3.2206    magn:    1.3653    constr:    0.0000
     atom:   28    charge:    3.2267    magn:    1.3634    constr:    0.0000
     atom:   29    charge:    3.2266    magn:    1.3632    constr:    0.0000
     atom:   30    charge:    3.2266    magn:    1.3632    constr:    0.0000
     atom:   31    charge:    3.2239    magn:    1.3704    constr:    0.0000
     atom:   32    charge:    3.2239    magn:    1.3702    constr:    0.0000
     atom:   33    charge:    3.2239    magn:    1.3704    constr:    0.0000
     atom:   34    charge:    3.2025    magn:    1.3949    constr:    0.0000
     atom:   35    charge:    3.2025    magn:    1.3949    constr:    0.0000
     atom:   36    charge:    3.2025    magn:    1.3949    constr:    0.0000
     atom:   37    charge:    0.5670    magn:    0.5292    constr:    0.0000

     total cpu time spent up to now is      304.0 secs

     total energy              =   -2890.97737418 Ry
     Harris-Foulkes estimate   =   -2901.18538924 Ry
     estimated scf accuracy    <     243.88532782 Ry

     total magnetization       =    74.57 Bohr mag/cell
     absolute magnetization    =    74.62 Bohr mag/cell

     iteration #  3     ecut=    44.10 Ry     beta=0.10
     Davidson diagonalization with overlap
     ethr =  7.22E-03,  avg # of iterations =  1.1

     negative rho (up, down):  7.696E-03 4.990E-03
 
     Adding external electric field

     Computed dipole along edir(3) : 
        Dipole               -0.5967 Ry au,         -1.5166 Debye
        Dipole field         -0.0006 Ry au
 
        Potential amp.        0.0872 Ry
        Total length         73.7482 bohr
 
 
     Adding external electric field

     Computed dipole along edir(3) : 
        Dipole               -0.5967 Ry au,         -1.5166 Debye
        Dipole field         -0.0006 Ry au
 
        Potential amp.        0.0872 Ry
        Total length         73.7482 bohr
 
 
     Magnetic moment per site:
     atom:    1    charge:    3.2107    magn:    1.3854    constr:    0.0000
     atom:    2    charge:    3.2120    magn:    1.3833    constr:    0.0000
     atom:    3    charge:    3.2107    magn:    1.3854    constr:    0.0000
     atom:    4    charge:    3.2340    magn:    1.3422    constr:    0.0000
     atom:    5    charge:    3.2220    magn:    1.3694    constr:    0.0000
     atom:    6    charge:    3.2220    magn:    1.3694    constr:    0.0000
     atom:    7    charge:    3.2187    magn:    1.3677    constr:    0.0000
     atom:    8    charge:    3.2201    magn:    1.3657    constr:    0.0000
     atom:    9    charge:    3.2187    magn:    1.3677    constr:    0.0000
     atom:   10    charge:    3.2152    magn:    1.3649    constr:    0.0000
     atom:   11    charge:    3.2154    magn:    1.3646    constr:    0.0000
     atom:   12    charge:    3.2154    magn:    1.3646    constr:    0.0000
     atom:   13    charge:    3.2082    magn:    1.3670    constr:    0.0000
     atom:   14    charge:    3.2091    magn:    1.3678    constr:    0.0000
     atom:   15    charge:    3.2082    magn:    1.3670    constr:    0.0000
     atom:   16    charge:    3.2050    magn:    1.3671    constr:    0.0000
     atom:   17    charge:    3.2056    magn:    1.3667    constr:    0.0000
     atom:   18    charge:    3.2056    magn:    1.3667    constr:    0.0000
     atom:   19    charge:    3.2052    magn:    1.3677    constr:    0.0000
     atom:   20    charge:    3.2052    magn:    1.3679    constr:    0.0000
     atom:   21    charge:    3.2052    magn:    1.3677    constr:    0.0000
     atom:   22    charge:    3.2091    magn:    1.3691    constr:    0.0000
     atom:   23    charge:    3.2089    magn:    1.3691    constr:    0.0000
     atom:   24    charge:    3.2089    magn:    1.3690    constr:    0.0000
     atom:   25    charge:    3.2161    magn:    1.3644    constr:    0.0000
     atom:   26    charge:    3.2161    magn:    1.3645    constr:    0.0000
     atom:   27    charge:    3.2161    magn:    1.3644    constr:    0.0000
     atom:   28    charge:    3.2201    magn:    1.3644    constr:    0.0000
     atom:   29    charge:    3.2199    magn:    1.3642    constr:    0.0000
     atom:   30    charge:    3.2199    magn:    1.3642    constr:    0.0000
     atom:   31    charge:    3.2189    magn:    1.3707    constr:    0.0000
     atom:   32    charge:    3.2189    magn:    1.3705    constr:    0.0000
     atom:   33    charge:    3.2188    magn:    1.3707    constr:    0.0000
     atom:   34    charge:    3.2077    magn:    1.3875    constr:    0.0000
     atom:   35    charge:    3.2077    magn:    1.3874    constr:    0.0000
     atom:   36    charge:    3.2077    magn:    1.3874    constr:    0.0000
     atom:   37    charge:    0.5682    magn:    0.5275    constr:    0.0000

     total cpu time spent up to now is      397.2 secs

     total energy              =   -2894.33080373 Ry
     Harris-Foulkes estimate   =   -2895.49209593 Ry
     estimated scf accuracy    <      55.61640119 Ry

     total magnetization       =    76.62 Bohr mag/cell
     absolute magnetization    =    76.67 Bohr mag/cell

     iteration #  4     ecut=    44.10 Ry     beta=0.10
     Davidson diagonalization with overlap
     ethr =  7.22E-03,  avg # of iterations =  1.0

     negative rho (up, down):  9.987E-03 6.645E-03
 
     Adding external electric field

     Computed dipole along edir(3) : 
        Dipole               -0.0129 Ry au,         -0.0328 Debye
        Dipole field         -0.0000 Ry au
 
        Potential amp.        0.0019 Ry
        Total length         73.7482 bohr
 
 
     Adding external electric field

     Computed dipole along edir(3) : 
        Dipole               -0.0129 Ry au,         -0.0328 Debye
        Dipole field         -0.0000 Ry au
 
        Potential amp.        0.0019 Ry
        Total length         73.7482 bohr
 
 
     Magnetic moment per site:
     atom:    1    charge:    3.2170    magn:    1.3741    constr:    0.0000
     atom:    2    charge:    3.2188    magn:    1.3715    constr:    0.0000
     atom:    3    charge:    3.2170    magn:    1.3741    constr:    0.0000
     atom:    4    charge:    3.2237    magn:    1.3372    constr:    0.0000
     atom:    5    charge:    3.2161    magn:    1.3671    constr:    0.0000
     atom:    6    charge:    3.2162    magn:    1.3671    constr:    0.0000
     atom:    7    charge:    3.2133    magn:    1.3644    constr:    0.0000
     atom:    8    charge:    3.2147    magn:    1.3624    constr:    0.0000
     atom:    9    charge:    3.2133    magn:    1.3644    constr:    0.0000
     atom:   10    charge:    3.2121    magn:    1.3589    constr:    0.0000
     atom:   11    charge:    3.2125    magn:    1.3585    constr:    0.0000
     atom:   12    charge:    3.2125    magn:    1.3586    constr:    0.0000
     atom:   13    charge:    3.2090    magn:    1.3585    constr:    0.0000
     atom:   14    charge:    3.2099    magn:    1.3594    constr:    0.0000
     atom:   15    charge:    3.2090    magn:    1.3585    constr:    0.0000
     atom:   16    charge:    3.2081    magn:    1.3572    constr:    0.0000
     atom:   17    charge:    3.2085    magn:    1.3570    constr:    0.0000
     atom:   18    charge:    3.2085    magn:    1.3570    constr:    0.0000
     atom:   19    charge:    3.2079    magn:    1.3581    constr:    0.0000
     atom:   20    charge:    3.2077    magn:    1.3584    constr:    0.0000
     atom:   21    charge:    3.2079    magn:    1.3581    constr:    0.0000
     atom:   22    charge:    3.2095    magn:    1.3610    constr:    0.0000
     atom:   23    charge:    3.2093    magn:    1.3608    constr:    0.0000
     atom:   24    charge:    3.2093    magn:    1.3608    constr:    0.0000
     atom:   25    charge:    3.2125    magn:    1.3587    constr:    0.0000
     atom:   26    charge:    3.2125    magn:    1.3589    constr:    0.0000
     atom:   27    charge:    3.2125    magn:    1.3587    constr:    0.0000
     atom:   28    charge:    3.2142    magn:    1.3611    constr:    0.0000
     atom:   29    charge:    3.2141    magn:    1.3607    constr:    0.0000
     atom:   30    charge:    3.2141    magn:    1.3607    constr:    0.0000
     atom:   31    charge:    3.2173    magn:    1.3644    constr:    0.0000
     atom:   32    charge:    3.2174    magn:    1.3641    constr:    0.0000
     atom:   33    charge:    3.2173    magn:    1.3644    constr:    0.0000
     atom:   34    charge:    3.2211    magn:    1.3696    constr:    0.0000
     atom:   35    charge:    3.2211    magn:    1.3696    constr:    0.0000
     atom:   36    charge:    3.2211    magn:    1.3696    constr:    0.0000
     atom:   37    charge:    0.5691    magn:    0.5238    constr:    0.0000

     total cpu time spent up to now is      490.2 secs

     total energy              =   -2894.60288253 Ry
     Harris-Foulkes estimate   =   -2895.41219753 Ry
     estimated scf accuracy    <      69.54540335 Ry

     total magnetization       =    76.20 Bohr mag/cell
     absolute magnetization    =    76.24 Bohr mag/cell

     iteration #  5     ecut=    44.10 Ry     beta=0.10
     Davidson diagonalization with overlap
     ethr =  7.22E-03,  avg # of iterations =  1.0

     negative rho (up, down):  7.711E-03 5.653E-03
 
     Adding external electric field

     Computed dipole along edir(3) : 
        Dipole               -0.2094 Ry au,         -0.5322 Debye
        Dipole field         -0.0002 Ry au
 
        Potential amp.        0.0306 Ry
        Total length         73.7482 bohr
 
 
     Adding external electric field

     Computed dipole along edir(3) : 
        Dipole               -0.2094 Ry au,         -0.5322 Debye
        Dipole field         -0.0002 Ry au
 
        Potential amp.        0.0306 Ry
        Total length         73.7482 bohr
 
 
     Magnetic moment per site:
     atom:    1    charge:    3.2409    magn:    1.3099    constr:    0.0000
     atom:    2    charge:    3.2395    magn:    1.3094    constr:    0.0000
     atom:    3    charge:    3.2409    magn:    1.3099    constr:    0.0000
     atom:    4    charge:    3.2095    magn:    1.2760    constr:    0.0000
     atom:    5    charge:    3.2158    magn:    1.3202    constr:    0.0000
     atom:    6    charge:    3.2158    magn:    1.3202    constr:    0.0000
     atom:    7    charge:    3.2073    magn:    1.3185    constr:    0.0000
     atom:    8    charge:    3.2073    magn:    1.3165    constr:    0.0000
     atom:    9    charge:    3.2073    magn:    1.3185    constr:    0.0000
     atom:   10    charge:    3.1960    magn:    1.3165    constr:    0.0000
     atom:   11    charge:    3.1955    magn:    1.3160    constr:    0.0000
     atom:   12    charge:    3.1955    magn:    1.3160    constr:    0.0000
     atom:   13    charge:    3.2019    magn:    1.3101    constr:    0.0000
     atom:   14    charge:    3.2022    magn:    1.3120    constr:    0.0000
     atom:   15    charge:    3.2019    magn:    1.3101    constr:    0.0000
     atom:   16    charge:    3.2039    magn:    1.3083    constr:    0.0000
     atom:   17    charge:    3.2039    magn:    1.3087    constr:    0.0000
     atom:   18    charge:    3.2039    magn:    1.3087    constr:    0.0000
     atom:   19    charge:    3.2049    magn:    1.3080    constr:    0.0000
     atom:   20    charge:    3.2045    magn:    1.3076    constr:    0.0000
     atom:   21    charge:    3.2049    magn:    1.3080    constr:    0.0000
     atom:   22    charge:    3.2047    magn:    1.3110    constr:    0.0000
     atom:   23    charge:    3.2048    magn:    1.3101    constr:    0.0000
     atom:   24    charge:    3.2048    magn:    1.3101    constr:    0.0000
     atom:   25    charge:    3.1992    magn:    1.3133    constr:    0.0000
     atom:   26    charge:    3.1994    magn:    1.3138    constr:    0.0000
     atom:   27    charge:    3.1992    magn:    1.3133    constr:    0.0000
     atom:   28    charge:    3.2121    magn:    1.3108    constr:    0.0000
     atom:   29    charge:    3.2121    magn:    1.3100    constr:    0.0000
     atom:   30    charge:    3.2121    magn:    1.3100    constr:    0.0000
     atom:   31    charge:    3.2226    magn:    1.3104    constr:    0.0000
     atom:   32    charge:    3.2228    magn:    1.3097    constr:    0.0000
     atom:   33    charge:    3.2226    magn:    1.3104    constr:    0.0000
     atom:   34    charge:    3.2313    magn:    1.3162    constr:    0.0000
     atom:   35    charge:    3.2313    magn:    1.3161    constr:    0.0000
     atom:   36    charge:    3.2313    magn:    1.3161    constr:    0.0000
     atom:   37    charge:    0.5799    magn:    0.5009    constr:    0.0000

     total cpu time spent up to now is      583.4 secs

     total energy              =   -2895.22089732 Ry
     Harris-Foulkes estimate   =   -2895.01653302 Ry
     estimated scf accuracy    <       2.47960693 Ry

     total magnetization       =    76.69 Bohr mag/cell
     absolute magnetization    =    76.74 Bohr mag/cell

     iteration #  6     ecut=    44.10 Ry     beta=0.10
     Davidson diagonalization with overlap
     ethr =  7.56E-04,  avg # of iterations =  8.4

     negative rho (up, down):  5.960E-03 5.149E-03
 
     Adding external electric field

     Computed dipole along edir(3) : 
        Dipole               -0.1213 Ry au,         -0.3084 Debye
        Dipole field         -0.0001 Ry au
 
        Potential amp.        0.0177 Ry
        Total length         73.7482 bohr
 
 
     Adding external electric field

     Computed dipole along edir(3) : 
        Dipole               -0.1213 Ry au,         -0.3084 Debye
        Dipole field         -0.0001 Ry au
 
        Potential amp.        0.0177 Ry
        Total length         73.7482 bohr
 
 
     Magnetic moment per site:
     atom:    1    charge:    3.2400    magn:    1.2693    constr:    0.0000
     atom:    2    charge:    3.2418    magn:    1.2659    constr:    0.0000
     atom:    3    charge:    3.2400    magn:    1.2694    constr:    0.0000
     atom:    4    charge:    3.2034    magn:    1.2155    constr:    0.0000
     atom:    5    charge:    3.2189    magn:    1.2742    constr:    0.0000
     atom:    6    charge:    3.2189    magn:    1.2742    constr:    0.0000
     atom:    7    charge:    3.2100    magn:    1.2700    constr:    0.0000
     atom:    8    charge:    3.2101    magn:    1.2670    constr:    0.0000
     atom:    9    charge:    3.2100    magn:    1.2700    constr:    0.0000
     atom:   10    charge:    3.1944    magn:    1.2684    constr:    0.0000
     atom:   11    charge:    3.1939    magn:    1.2674    constr:    0.0000
     atom:   12    charge:    3.1939    magn:    1.2674    constr:    0.0000
     atom:   13    charge:    3.1975    magn:    1.2641    constr:    0.0000
     atom:   14    charge:    3.1978    magn:    1.2667    constr:    0.0000
     atom:   15    charge:    3.1975    magn:    1.2641    constr:    0.0000
     atom:   16    charge:    3.1991    magn:    1.2636    constr:    0.0000
     atom:   17    charge:    3.1991    magn:    1.2643    constr:    0.0000
     atom:   18    charge:    3.1991    magn:    1.2643    constr:    0.0000
     atom:   19    charge:    3.1981    magn:    1.2649    constr:    0.0000
     atom:   20    charge:    3.1976    magn:    1.2639    constr:    0.0000
     atom:   21    charge:    3.1981    magn:    1.2649    constr:    0.0000
     atom:   22    charge:    3.1959    magn:    1.2690    constr:    0.0000
     atom:   23    charge:    3.1959    magn:    1.2677    constr:    0.0000
     atom:   24    charge:    3.1959    magn:    1.2676    constr:    0.0000
     atom:   25    charge:    3.1928    magn:    1.2685    constr:    0.0000
     atom:   26    charge:    3.1930    magn:    1.2692    constr:    0.0000
     atom:   27    charge:    3.1928    magn:    1.2685    constr:    0.0000
     atom:   28    charge:    3.2068    magn:    1.2673    constr:    0.0000
     atom:   29    charge:    3.2069    magn:    1.2661    constr:    0.0000
     atom:   30    charge:    3.2069    magn:    1.2660    constr:    0.0000
     atom:   31    charge:    3.2191    magn:    1.2673    constr:    0.0000
     atom:   32    charge:    3.2192    magn:    1.2664    constr:    0.0000
     atom:   33    charge:    3.2191    magn:    1.2673    constr:    0.0000
     atom:   34    charge:    3.2466    magn:    1.2612    constr:    0.0000
     atom:   35    charge:    3.2465    magn:    1.2612    constr:    0.0000
     atom:   36    charge:    3.2465    magn:    1.2612    constr:    0.0000
     atom:   37    charge:    0.5892    magn:    0.4791    constr:    0.0000

     total cpu time spent up to now is      718.2 secs

     total energy              =   -2895.59245949 Ry
     Harris-Foulkes estimate   =   -2895.41538979 Ry
     estimated scf accuracy    <       4.59295160 Ry

     total magnetization       =    75.88 Bohr mag/cell
     absolute magnetization    =    75.98 Bohr mag/cell

     iteration #  7     ecut=    44.10 Ry     beta=0.10
     Davidson diagonalization with overlap
     ethr =  7.56E-04,  avg # of iterations =  1.4

     negative rho (up, down):  5.991E-03 5.600E-03
 
     Adding external electric field

     Computed dipole along edir(3) : 
        Dipole               -0.1905 Ry au,         -0.4842 Debye
        Dipole field         -0.0002 Ry au
 
        Potential amp.        0.0278 Ry
        Total length         73.7482 bohr
 
 
     Adding external electric field

     Computed dipole along edir(3) : 
        Dipole               -0.1905 Ry au,         -0.4842 Debye
        Dipole field         -0.0002 Ry au
 
        Potential amp.        0.0278 Ry
        Total length         73.7482 bohr
 
 
     Magnetic moment per site:
     atom:    1    charge:    3.2366    magn:    1.2498    constr:    0.0000
     atom:    2    charge:    3.2386    magn:    1.2458    constr:    0.0000
     atom:    3    charge:    3.2366    magn:    1.2498    constr:    0.0000
     atom:    4    charge:    3.2029    magn:    1.1817    constr:    0.0000
     atom:    5    charge:    3.2149    magn:    1.2545    constr:    0.0000
     atom:    6    charge:    3.2149    magn:    1.2545    constr:    0.0000
     atom:    7    charge:    3.2068    magn:    1.2486    constr:    0.0000
     atom:    8    charge:    3.2074    magn:    1.2449    constr:    0.0000
     atom:    9    charge:    3.2068    magn:    1.2486    constr:    0.0000
     atom:   10    charge:    3.1981    magn:    1.2410    constr:    0.0000
     atom:   11    charge:    3.1978    magn:    1.2403    constr:    0.0000
     atom:   12    charge:    3.1978    magn:    1.2403    constr:    0.0000
     atom:   13    charge:    3.1960    magn:    1.2403    constr:    0.0000
     atom:   14    charge:    3.1962    magn:    1.2434    constr:    0.0000
     atom:   15    charge:    3.1960    magn:    1.2403    constr:    0.0000
     atom:   16    charge:    3.1967    magn:    1.2403    constr:    0.0000
     atom:   17    charge:    3.1968    magn:    1.2410    constr:    0.0000
     atom:   18    charge:    3.1968    magn:    1.2410    constr:    0.0000
     atom:   19    charge:    3.1969    magn:    1.2410    constr:    0.0000
     atom:   20    charge:    3.1965    magn:    1.2398    constr:    0.0000
     atom:   21    charge:    3.1969    magn:    1.2410    constr:    0.0000
     atom:   22    charge:    3.1970    magn:    1.2439    constr:    0.0000
     atom:   23    charge:    3.1968    magn:    1.2426    constr:    0.0000
     atom:   24    charge:    3.1968    magn:    1.2426    constr:    0.0000
     atom:   25    charge:    3.1979    magn:    1.2405    constr:    0.0000
     atom:   26    charge:    3.1980    magn:    1.2414    constr:    0.0000
     atom:   27    charge:    3.1979    magn:    1.2405    constr:    0.0000
     atom:   28    charge:    3.2075    magn:    1.2422    constr:    0.0000
     atom:   29    charge:    3.2075    magn:    1.2406    constr:    0.0000
     atom:   30    charge:    3.2075    magn:    1.2406    constr:    0.0000
     atom:   31    charge:    3.2163    magn:    1.2456    constr:    0.0000
     atom:   32    charge:    3.2163    magn:    1.2445    constr:    0.0000
     atom:   33    charge:    3.2163    magn:    1.2456    constr:    0.0000
     atom:   34    charge:    3.2388    magn:    1.2433    constr:    0.0000
     atom:   35    charge:    3.2387    magn:    1.2433    constr:    0.0000
     atom:   36    charge:    3.2387    magn:    1.2433    constr:    0.0000
     atom:   37    charge:    0.5930    magn:    0.4657    constr:    0.0000

     total cpu time spent up to now is      812.7 secs

     total energy              =   -2895.77700386 Ry
     Harris-Foulkes estimate   =   -2895.71205401 Ry
     estimated scf accuracy    <       3.33240954 Ry

     total magnetization       =    74.71 Bohr mag/cell
     absolute magnetization    =    75.00 Bohr mag/cell

     iteration #  8     ecut=    44.10 Ry     beta=0.10
     Davidson diagonalization with overlap
     ethr =  7.56E-04,  avg # of iterations =  1.0

     negative rho (up, down):  5.591E-03 6.128E-03
 
     Adding external electric field

     Computed dipole along edir(3) : 
        Dipole               -0.1753 Ry au,         -0.4456 Debye
        Dipole field         -0.0002 Ry au
 
        Potential amp.        0.0256 Ry
        Total length         73.7482 bohr
 
 
     Adding external electric field

     Computed dipole along edir(3) : 
        Dipole               -0.1753 Ry au,         -0.4456 Debye
        Dipole field         -0.0002 Ry au
 
        Potential amp.        0.0256 Ry
        Total length         73.7482 bohr
 
 
     Magnetic moment per site:
     atom:    1    charge:    3.2281    magn:    1.2282    constr:    0.0000
     atom:    2    charge:    3.2290    magn:    1.2246    constr:    0.0000
     atom:    3    charge:    3.2281    magn:    1.2282    constr:    0.0000
     atom:    4    charge:    3.2010    magn:    1.1400    constr:    0.0000
     atom:    5    charge:    3.2142    magn:    1.2275    constr:    0.0000
     atom:    6    charge:    3.2142    magn:    1.2275    constr:    0.0000
     atom:    7    charge:    3.2071    magn:    1.2199    constr:    0.0000
     atom:    8    charge:    3.2075    magn:    1.2160    constr:    0.0000
     atom:    9    charge:    3.2071    magn:    1.2199    constr:    0.0000
     atom:   10    charge:    3.1961    magn:    1.2137    constr:    0.0000
     atom:   11    charge:    3.1959    magn:    1.2134    constr:    0.0000
     atom:   12    charge:    3.1959    magn:    1.2134    constr:    0.0000
     atom:   13    charge:    3.1983    magn:    1.2095    constr:    0.0000
     atom:   14    charge:    3.1986    magn:    1.2127    constr:    0.0000
     atom:   15    charge:    3.1983    magn:    1.2095    constr:    0.0000
     atom:   16    charge:    3.1982    magn:    1.2101    constr:    0.0000
     atom:   17    charge:    3.1984    magn:    1.2108    constr:    0.0000
     atom:   18    charge:    3.1984    magn:    1.2108    constr:    0.0000
     atom:   19    charge:    3.1976    magn:    1.2115    constr:    0.0000
     atom:   20    charge:    3.1972    magn:    1.2100    constr:    0.0000
     atom:   21    charge:    3.1976    magn:    1.2114    constr:    0.0000
     atom:   22    charge:    3.1980    magn:    1.2144    constr:    0.0000
     atom:   23    charge:    3.1980    magn:    1.2130    constr:    0.0000
     atom:   24    charge:    3.1980    magn:    1.2130    constr:    0.0000
     atom:   25    charge:    3.1965    magn:    1.2132    constr:    0.0000
     atom:   26    charge:    3.1968    magn:    1.2141    constr:    0.0000
     atom:   27    charge:    3.1965    magn:    1.2132    constr:    0.0000
     atom:   28    charge:    3.2060    magn:    1.2140    constr:    0.0000
     atom:   29    charge:    3.2058    magn:    1.2121    constr:    0.0000
     atom:   30    charge:    3.2058    magn:    1.2121    constr:    0.0000
     atom:   31    charge:    3.2140    magn:    1.2183    constr:    0.0000
     atom:   32    charge:    3.2141    magn:    1.2169    constr:    0.0000
     atom:   33    charge:    3.2140    magn:    1.2183    constr:    0.0000
     atom:   34    charge:    3.2296    magn:    1.2202    constr:    0.0000
     atom:   35    charge:    3.2295    magn:    1.2202    constr:    0.0000
     atom:   36    charge:    3.2295    magn:    1.2203    constr:    0.0000
     atom:   37    charge:    0.5952    magn:    0.4474    constr:    0.0000

     total cpu time spent up to now is      905.7 secs

     total energy              =   -2895.97023284 Ry
     Harris-Foulkes estimate   =   -2895.82293251 Ry
     estimated scf accuracy    <       0.79217647 Ry

     total magnetization       =    73.69 Bohr mag/cell
     absolute magnetization    =    74.13 Bohr mag/cell

     iteration #  9     ecut=    44.10 Ry     beta=0.10
     Davidson diagonalization with overlap
     ethr =  2.42E-04,  avg # of iterations =  4.3

     negative rho (up, down):  5.514E-03 7.411E-03
 
     Adding external electric field

     Computed dipole along edir(3) : 
        Dipole               -0.1197 Ry au,         -0.3043 Debye
        Dipole field         -0.0001 Ry au
 
        Potential amp.        0.0175 Ry
        Total length         73.7482 bohr
 
 
     Adding external electric field

     Computed dipole along edir(3) : 
        Dipole               -0.1197 Ry au,         -0.3043 Debye
        Dipole field         -0.0001 Ry au
 
        Potential amp.        0.0175 Ry
        Total length         73.7482 bohr
 
 
     Magnetic moment per site:
     atom:    1    charge:    3.2315    magn:    1.1525    constr:    0.0000
     atom:    2    charge:    3.2304    magn:    1.1501    constr:    0.0000
     atom:    3    charge:    3.2316    magn:    1.1525    constr:    0.0000
     atom:    4    charge:    3.1877    magn:    1.0361    constr:    0.0000
     atom:    5    charge:    3.2083    magn:    1.1624    constr:    0.0000
     atom:    6    charge:    3.2083    magn:    1.1624    constr:    0.0000
     atom:    7    charge:    3.2031    magn:    1.1502    constr:    0.0000
     atom:    8    charge:    3.2018    magn:    1.1468    constr:    0.0000
     atom:    9    charge:    3.2031    magn:    1.1502    constr:    0.0000
     atom:   10    charge:    3.1932    magn:    1.1412    constr:    0.0000
     atom:   11    charge:    3.1925    magn:    1.1422    constr:    0.0000
     atom:   12    charge:    3.1925    magn:    1.1422    constr:    0.0000
     atom:   13    charge:    3.1946    magn:    1.1382    constr:    0.0000
     atom:   14    charge:    3.1942    magn:    1.1418    constr:    0.0000
     atom:   15    charge:    3.1946    magn:    1.1382    constr:    0.0000
     atom:   16    charge:    3.1978    magn:    1.1376    constr:    0.0000
     atom:   17    charge:    3.1976    magn:    1.1389    constr:    0.0000
     atom:   18    charge:    3.1976    magn:    1.1389    constr:    0.0000
     atom:   19    charge:    3.1982    magn:    1.1383    constr:    0.0000
     atom:   20    charge:    3.1975    magn:    1.1357    constr:    0.0000
     atom:   21    charge:    3.1982    magn:    1.1383    constr:    0.0000
     atom:   22    charge:    3.1945    magn:    1.1431    constr:    0.0000
     atom:   23    charge:    3.1945    magn:    1.1417    constr:    0.0000
     atom:   24    charge:    3.1944    magn:    1.1417    constr:    0.0000
     atom:   25    charge:    3.1932    magn:    1.1416    constr:    0.0000
     atom:   26    charge:    3.1932    magn:    1.1431    constr:    0.0000
     atom:   27    charge:    3.1932    magn:    1.1415    constr:    0.0000
     atom:   28    charge:    3.2018    magn:    1.1431    constr:    0.0000
     atom:   29    charge:    3.2014    magn:    1.1405    constr:    0.0000
     atom:   30    charge:    3.2014    magn:    1.1405    constr:    0.0000
     atom:   31    charge:    3.2043    magn:    1.1524    constr:    0.0000
     atom:   32    charge:    3.2041    magn:    1.1506    constr:    0.0000
     atom:   33    charge:    3.2043    magn:    1.1524    constr:    0.0000
     atom:   34    charge:    3.2281    magn:    1.1464    constr:    0.0000
     atom:   35    charge:    3.2280    magn:    1.1466    constr:    0.0000
     atom:   36    charge:    3.2280    magn:    1.1466    constr:    0.0000
     atom:   37    charge:    0.5976    magn:    0.3995    constr:    0.0000

     total cpu time spent up to now is     1012.6 secs

     total energy              =   -2896.33309956 Ry
     Harris-Foulkes estimate   =   -2896.00151607 Ry
     estimated scf accuracy    <       0.85555427 Ry

     total magnetization       =    72.30 Bohr mag/cell
     absolute magnetization    =    72.98 Bohr mag/cell

     iteration # 10     ecut=    44.10 Ry     beta=0.10
     Davidson diagonalization with overlap
     ethr =  2.42E-04,  avg # of iterations =  3.5

     negative rho (up, down):  9.481E-03 1.049E-02
 
     Adding external electric field

     Computed dipole along edir(3) : 
        Dipole               -0.0850 Ry au,         -0.2160 Debye
        Dipole field         -0.0001 Ry au
 
        Potential amp.        0.0124 Ry
        Total length         73.7482 bohr
 
 
     Adding external electric field

     Computed dipole along edir(3) : 
        Dipole               -0.0850 Ry au,         -0.2160 Debye
        Dipole field         -0.0001 Ry au
 
        Potential amp.        0.0124 Ry
        Total length         73.7482 bohr
 
 
     Magnetic moment per site:
     atom:    1    charge:    3.2332    magn:    1.0863    constr:    0.0000
     atom:    2    charge:    3.2308    magn:    1.0851    constr:    0.0000
     atom:    3    charge:    3.2332    magn:    1.0863    constr:    0.0000
     atom:    4    charge:    3.1804    magn:    0.9356    constr:    0.0000
     atom:    5    charge:    3.2077    magn:    1.1008    constr:    0.0000
     atom:    6    charge:    3.2077    magn:    1.1008    constr:    0.0000
     atom:    7    charge:    3.1984    magn:    1.0884    constr:    0.0000
     atom:    8    charge:    3.1971    magn:    1.0846    constr:    0.0000
     atom:    9    charge:    3.1984    magn:    1.0884    constr:    0.0000
     atom:   10    charge:    3.1926    magn:    1.0744    constr:    0.0000
     atom:   11    charge:    3.1923    magn:    1.0759    constr:    0.0000
     atom:   12    charge:    3.1923    magn:    1.0759    constr:    0.0000
     atom:   13    charge:    3.1956    magn:    1.0703    constr:    0.0000
     atom:   14    charge:    3.1948    magn:    1.0740    constr:    0.0000
     atom:   15    charge:    3.1956    magn:    1.0703    constr:    0.0000
     atom:   16    charge:    3.1954    magn:    1.0731    constr:    0.0000
     atom:   17    charge:    3.1952    magn:    1.0745    constr:    0.0000
     atom:   18    charge:    3.1952    magn:    1.0745    constr:    0.0000
     atom:   19    charge:    3.1950    magn:    1.0744    constr:    0.0000
     atom:   20    charge:    3.1944    magn:    1.0707    constr:    0.0000
     atom:   21    charge:    3.1950    magn:    1.0744    constr:    0.0000
     atom:   22    charge:    3.1957    magn:    1.0756    constr:    0.0000
     atom:   23    charge:    3.1955    magn:    1.0742    constr:    0.0000
     atom:   24    charge:    3.1955    magn:    1.0742    constr:    0.0000
     atom:   25    charge:    3.1914    magn:    1.0762    constr:    0.0000
     atom:   26    charge:    3.1914    magn:    1.0780    constr:    0.0000
     atom:   27    charge:    3.1914    magn:    1.0762    constr:    0.0000
     atom:   28    charge:    3.1946    magn:    1.0823    constr:    0.0000
     atom:   29    charge:    3.1945    magn:    1.0789    constr:    0.0000
     atom:   30    charge:    3.1946    magn:    1.0789    constr:    0.0000
     atom:   31    charge:    3.2039    magn:    1.0879    constr:    0.0000
     atom:   32    charge:    3.2044    magn:    1.0852    constr:    0.0000
     atom:   33    charge:    3.2039    magn:    1.0879    constr:    0.0000
     atom:   34    charge:    3.2271    magn:    1.0813    constr:    0.0000
     atom:   35    charge:    3.2276    magn:    1.0812    constr:    0.0000
     atom:   36    charge:    3.2276    magn:    1.0812    constr:    0.0000
     atom:   37    charge:    0.5970    magn:    0.3523    constr:    0.0000

     total cpu time spent up to now is     1117.6 secs

     total energy              =   -2896.65203260 Ry
     Harris-Foulkes estimate   =   -2896.40098623 Ry
     estimated scf accuracy    <       1.10460355 Ry

     total magnetization       =    69.86 Bohr mag/cell
     absolute magnetization    =    71.51 Bohr mag/cell

     iteration # 11     ecut=    44.10 Ry     beta=0.10
     Davidson diagonalization with overlap
     ethr =  2.42E-04,  avg # of iterations =  4.8

     negative rho (up, down):  1.483E-02 1.443E-02
 
     Adding external electric field

     Computed dipole along edir(3) : 
        Dipole               -0.1126 Ry au,         -0.2862 Debye
        Dipole field         -0.0001 Ry au
 
        Potential amp.        0.0165 Ry
        Total length         73.7482 bohr
 
 
     Adding external electric field

     Computed dipole along edir(3) : 
        Dipole               -0.1126 Ry au,         -0.2862 Debye
        Dipole field         -0.0001 Ry au
 
        Potential amp.        0.0165 Ry
        Total length         73.7482 bohr
 
 
     Magnetic moment per site:
     atom:    1    charge:    3.2276    magn:    1.0217    constr:    0.0000
     atom:    2    charge:    3.2233    magn:    1.0240    constr:    0.0000
     atom:    3    charge:    3.2276    magn:    1.0217    constr:    0.0000
     atom:    4    charge:    3.1798    magn:    0.8176    constr:    0.0000
     atom:    5    charge:    3.2074    magn:    1.0366    constr:    0.0000
     atom:    6    charge:    3.2074    magn:    1.0366    constr:    0.0000
     atom:    7    charge:    3.2003    magn:    1.0196    constr:    0.0000
     atom:    8    charge:    3.1982    magn:    1.0169    constr:    0.0000
     atom:    9    charge:    3.2003    magn:    1.0196    constr:    0.0000
     atom:   10    charge:    3.1941    magn:    1.0031    constr:    0.0000
     atom:   11    charge:    3.1937    magn:    1.0061    constr:    0.0000
     atom:   12    charge:    3.1937    magn:    1.0061    constr:    0.0000
     atom:   13    charge:    3.1973    magn:    0.9983    constr:    0.0000
     atom:   14    charge:    3.1960    magn:    1.0017    constr:    0.0000
     atom:   15    charge:    3.1973    magn:    0.9983    constr:    0.0000
     atom:   16    charge:    3.1969    magn:    1.0016    constr:    0.0000
     atom:   17    charge:    3.1965    magn:    1.0032    constr:    0.0000
     atom:   18    charge:    3.1965    magn:    1.0032    constr:    0.0000
     atom:   19    charge:    3.1964    magn:    1.0034    constr:    0.0000
     atom:   20    charge:    3.1955    magn:    0.9995    constr:    0.0000
     atom:   21    charge:    3.1964    magn:    1.0034    constr:    0.0000
     atom:   22    charge:    3.1974    magn:    1.0047    constr:    0.0000
     atom:   23    charge:    3.1969    magn:    1.0039    constr:    0.0000
     atom:   24    charge:    3.1969    magn:    1.0039    constr:    0.0000
     atom:   25    charge:    3.1948    magn:    1.0053    constr:    0.0000
     atom:   26    charge:    3.1944    magn:    1.0071    constr:    0.0000
     atom:   27    charge:    3.1948    magn:    1.0053    constr:    0.0000
     atom:   28    charge:    3.1977    magn:    1.0117    constr:    0.0000
     atom:   29    charge:    3.1972    magn:    1.0089    constr:    0.0000
     atom:   30    charge:    3.1972    magn:    1.0089    constr:    0.0000
     atom:   31    charge:    3.2028    magn:    1.0225    constr:    0.0000
     atom:   32    charge:    3.2026    magn:    1.0204    constr:    0.0000
     atom:   33    charge:    3.2028    magn:    1.0225    constr:    0.0000
     atom:   34    charge:    3.2224    magn:    1.0169    constr:    0.0000
     atom:   35    charge:    3.2221    magn:    1.0176    constr:    0.0000
     atom:   36    charge:    3.2221    magn:    1.0176    constr:    0.0000
     atom:   37    charge:    0.5911    magn:    0.2929    constr:    0.0000

     total cpu time spent up to now is     1227.6 secs

     total energy              =   -2896.78923501 Ry
     Harris-Foulkes estimate   =   -2896.69436886 Ry
     estimated scf accuracy    <       2.81324291 Ry

     total magnetization       =    67.59 Bohr mag/cell
     absolute magnetization    =    70.45 Bohr mag/cell

     iteration # 12     ecut=    44.10 Ry     beta=0.10
     Davidson diagonalization with overlap
     ethr =  2.42E-04,  avg # of iterations =  4.4

     negative rho (up, down):  1.391E-02 1.437E-02
 
     Adding external electric field

     Computed dipole along edir(3) : 
        Dipole               -0.1578 Ry au,         -0.4010 Debye
        Dipole field         -0.0002 Ry au
 
        Potential amp.        0.0231 Ry
        Total length         73.7482 bohr
 
 
     Adding external electric field

     Computed dipole along edir(3) : 
        Dipole               -0.1578 Ry au,         -0.4010 Debye
        Dipole field         -0.0002 Ry au
 
        Potential amp.        0.0231 Ry
        Total length         73.7482 bohr
 
 
     Magnetic moment per site:
     atom:    1    charge:    3.2199    magn:    1.0156    constr:    0.0000
     atom:    2    charge:    3.2174    magn:    1.0191    constr:    0.0000
     atom:    3    charge:    3.2199    magn:    1.0157    constr:    0.0000
     atom:    4    charge:    3.1828    magn:    0.7838    constr:    0.0000
     atom:    5    charge:    3.2072    magn:    1.0280    constr:    0.0000
     atom:    6    charge:    3.2072    magn:    1.0280    constr:    0.0000
     atom:    7    charge:    3.2001    magn:    1.0107    constr:    0.0000
     atom:    8    charge:    3.1987    magn:    1.0088    constr:    0.0000
     atom:    9    charge:    3.2001    magn:    1.0107    constr:    0.0000
     atom:   10    charge:    3.1978    magn:    0.9912    constr:    0.0000
     atom:   11    charge:    3.1989    magn:    0.9939    constr:    0.0000
     atom:   12    charge:    3.1989    magn:    0.9939    constr:    0.0000
     atom:   13    charge:    3.1989    magn:    0.9878    constr:    0.0000
     atom:   14    charge:    3.1997    magn:    0.9892    constr:    0.0000
     atom:   15    charge:    3.1989    magn:    0.9878    constr:    0.0000
     atom:   16    charge:    3.1987    magn:    0.9905    constr:    0.0000
     atom:   17    charge:    3.1998    magn:    0.9910    constr:    0.0000
     atom:   18    charge:    3.1998    magn:    0.9910    constr:    0.0000
     atom:   19    charge:    3.2001    magn:    0.9910    constr:    0.0000
     atom:   20    charge:    3.2004    magn:    0.9868    constr:    0.0000
     atom:   21    charge:    3.2000    magn:    0.9910    constr:    0.0000
     atom:   22    charge:    3.1986    magn:    0.9949    constr:    0.0000
     atom:   23    charge:    3.1997    magn:    0.9933    constr:    0.0000
     atom:   24    charge:    3.1997    magn:    0.9933    constr:    0.0000
     atom:   25    charge:    3.1972    magn:    0.9955    constr:    0.0000
     atom:   26    charge:    3.1982    magn:    0.9959    constr:    0.0000
     atom:   27    charge:    3.1972    magn:    0.9955    constr:    0.0000
     atom:   28    charge:    3.1991    magn:    1.0022    constr:    0.0000
     atom:   29    charge:    3.1995    magn:    0.9993    constr:    0.0000
     atom:   30    charge:    3.1995    magn:    0.9993    constr:    0.0000
     atom:   31    charge:    3.2037    magn:    1.0141    constr:    0.0000
     atom:   32    charge:    3.2050    magn:    1.0114    constr:    0.0000
     atom:   33    charge:    3.2037    magn:    1.0141    constr:    0.0000
     atom:   34    charge:    3.2157    magn:    1.0123    constr:    0.0000
     atom:   35    charge:    3.2177    magn:    1.0110    constr:    0.0000
     atom:   36    charge:    3.2177    magn:    1.0110    constr:    0.0000
     atom:   37    charge:    0.5844    magn:    0.2689    constr:    0.0000

     total cpu time spent up to now is     1336.8 secs

     total energy              =   -2896.81216993 Ry
     Harris-Foulkes estimate   =   -2896.82217112 Ry
     estimated scf accuracy    <       0.63237803 Ry

     total magnetization       =    65.18 Bohr mag/cell
     absolute magnetization    =    69.38 Bohr mag/cell

     iteration # 13     ecut=    44.10 Ry     beta=0.10
     Davidson diagonalization with overlap
     ethr =  1.93E-04,  avg # of iterations =  1.2

     negative rho (up, down):  1.424E-02 1.489E-02
 
     Adding external electric field

     Computed dipole along edir(3) : 
        Dipole               -0.1975 Ry au,         -0.5020 Debye
        Dipole field         -0.0002 Ry au
 
        Potential amp.        0.0289 Ry
        Total length         73.7482 bohr
 
 
     Adding external electric field

     Computed dipole along edir(3) : 
        Dipole               -0.1975 Ry au,         -0.5020 Debye
        Dipole field         -0.0002 Ry au
 
        Potential amp.        0.0289 Ry
        Total length         73.7482 bohr
 
 
     Magnetic moment per site:
     atom:    1    charge:    3.2186    magn:    0.9988    constr:    0.0000
     atom:    2    charge:    3.2143    magn:    1.0058    constr:    0.0000
     atom:    3    charge:    3.2186    magn:    0.9988    constr:    0.0000
     atom:    4    charge:    3.1841    magn:    0.7415    constr:    0.0000
     atom:    5    charge:    3.2078    magn:    1.0112    constr:    0.0000
     atom:    6    charge:    3.2078    magn:    1.0112    constr:    0.0000
     atom:    7    charge:    3.2022    magn:    0.9919    constr:    0.0000
     atom:    8    charge:    3.2004    magn:    0.9912    constr:    0.0000
     atom:    9    charge:    3.2022    magn:    0.9919    constr:    0.0000
     atom:   10    charge:    3.1994    magn:    0.9715    constr:    0.0000
     atom:   11    charge:    3.1995    magn:    0.9752    constr:    0.0000
     atom:   12    charge:    3.1995    magn:    0.9752    constr:    0.0000
     atom:   13    charge:    3.2011    magn:    0.9674    constr:    0.0000
     atom:   14    charge:    3.2004    magn:    0.9697    constr:    0.0000
     atom:   15    charge:    3.2011    magn:    0.9674    constr:    0.0000
     atom:   16    charge:    3.2000    magn:    0.9707    constr:    0.0000
     atom:   17    charge:    3.1997    magn:    0.9722    constr:    0.0000
     atom:   18    charge:    3.1998    magn:    0.9722    constr:    0.0000
     atom:   19    charge:    3.1998    magn:    0.9724    constr:    0.0000
     atom:   20    charge:    3.1989    magn:    0.9694    constr:    0.0000
     atom:   21    charge:    3.1998    magn:    0.9724    constr:    0.0000
     atom:   22    charge:    3.2015    magn:    0.9746    constr:    0.0000
     atom:   23    charge:    3.2008    magn:    0.9745    constr:    0.0000
     atom:   24    charge:    3.2008    magn:    0.9745    constr:    0.0000
     atom:   25    charge:    3.2004    magn:    0.9756    constr:    0.0000
     atom:   26    charge:    3.1999    magn:    0.9768    constr:    0.0000
     atom:   27    charge:    3.2004    magn:    0.9756    constr:    0.0000
     atom:   28    charge:    3.2016    magn:    0.9831    constr:    0.0000
     atom:   29    charge:    3.2009    magn:    0.9817    constr:    0.0000
     atom:   30    charge:    3.2009    magn:    0.9817    constr:    0.0000
     atom:   31    charge:    3.2058    magn:    0.9966    constr:    0.0000
     atom:   32    charge:    3.2052    magn:    0.9955    constr:    0.0000
     atom:   33    charge:    3.2058    magn:    0.9966    constr:    0.0000
     atom:   34    charge:    3.2174    magn:    0.9948    constr:    0.0000
     atom:   35    charge:    3.2164    magn:    0.9958    constr:    0.0000
     atom:   36    charge:    3.2164    magn:    0.9958    constr:    0.0000
     atom:   37    charge:    0.5798    magn:    0.2438    constr:    0.0000

     total cpu time spent up to now is     1430.6 secs

     total energy              =   -2896.83834272 Ry
     Harris-Foulkes estimate   =   -2896.82772738 Ry
     estimated scf accuracy    <       0.28098842 Ry

     total magnetization       =    64.42 Bohr mag/cell
     absolute magnetization    =    68.94 Bohr mag/cell

     iteration # 14     ecut=    44.10 Ry     beta=0.10
     Davidson diagonalization with overlap
     ethr =  8.57E-05,  avg # of iterations =  7.3

     negative rho (up, down):  1.383E-02 1.501E-02
 
     Adding external electric field

     Computed dipole along edir(3) : 
        Dipole               -0.2360 Ry au,         -0.5998 Debye
        Dipole field         -0.0002 Ry au
 
        Potential amp.        0.0345 Ry
        Total length         73.7482 bohr
 
 
     Adding external electric field

     Computed dipole along edir(3) : 
        Dipole               -0.2360 Ry au,         -0.5998 Debye
        Dipole field         -0.0002 Ry au
 
        Potential amp.        0.0345 Ry
        Total length         73.7482 bohr
 
 
     Magnetic moment per site:
     atom:    1    charge:    3.2187    magn:    0.9892    constr:    0.0000
     atom:    2    charge:    3.2159    magn:    0.9976    constr:    0.0000
     atom:    3    charge:    3.2186    magn:    0.9892    constr:    0.0000
     atom:    4    charge:    3.1827    magn:    0.7080    constr:    0.0000
     atom:    5    charge:    3.2087    magn:    1.0012    constr:    0.0000
     atom:    6    charge:    3.2087    magn:    1.0012    constr:    0.0000
     atom:    7    charge:    3.2029    magn:    0.9813    constr:    0.0000
     atom:    8    charge:    3.2021    magn:    0.9807    constr:    0.0000
     atom:    9    charge:    3.2029    magn:    0.9814    constr:    0.0000
     atom:   10    charge:    3.1993    magn:    0.9598    constr:    0.0000
     atom:   11    charge:    3.2000    magn:    0.9633    constr:    0.0000
     atom:   12    charge:    3.2000    magn:    0.9633    constr:    0.0000
     atom:   13    charge:    3.2015    magn:    0.9554    constr:    0.0000
     atom:   14    charge:    3.2012    magn:    0.9574    constr:    0.0000
     atom:   15    charge:    3.2015    magn:    0.9554    constr:    0.0000
     atom:   16    charge:    3.1999    magn:    0.9593    constr:    0.0000
     atom:   17    charge:    3.2001    magn:    0.9604    constr:    0.0000
     atom:   18    charge:    3.2001    magn:    0.9604    constr:    0.0000
     atom:   19    charge:    3.1994    magn:    0.9611    constr:    0.0000
     atom:   20    charge:    3.1991    magn:    0.9582    constr:    0.0000
     atom:   21    charge:    3.1993    magn:    0.9611    constr:    0.0000
     atom:   22    charge:    3.2015    magn:    0.9635    constr:    0.0000
     atom:   23    charge:    3.2013    magn:    0.9632    constr:    0.0000
     atom:   24    charge:    3.2013    magn:    0.9632    constr:    0.0000
     atom:   25    charge:    3.2008    magn:    0.9644    constr:    0.0000
     atom:   26    charge:    3.2009    magn:    0.9649    constr:    0.0000
     atom:   27    charge:    3.2008    magn:    0.9644    constr:    0.0000
     atom:   28    charge:    3.2018    magn:    0.9731    constr:    0.0000
     atom:   29    charge:    3.2020    magn:    0.9715    constr:    0.0000
     atom:   30    charge:    3.2020    magn:    0.9715    constr:    0.0000
     atom:   31    charge:    3.2065    magn:    0.9873    constr:    0.0000
     atom:   32    charge:    3.2069    magn:    0.9858    constr:    0.0000
     atom:   33    charge:    3.2065    magn:    0.9873    constr:    0.0000
     atom:   34    charge:    3.2177    magn:    0.9864    constr:    0.0000
     atom:   35    charge:    3.2183    magn:    0.9860    constr:    0.0000
     atom:   36    charge:    3.2183    magn:    0.9860    constr:    0.0000
     atom:   37    charge:    0.5760    magn:    0.2215    constr:    0.0000

     total cpu time spent up to now is     1550.3 secs

     total energy              =   -2896.85771612 Ry
     Harris-Foulkes estimate   =   -2896.84733928 Ry
     estimated scf accuracy    <       0.04493335 Ry

     total magnetization       =    63.67 Bohr mag/cell
     absolute magnetization    =    68.60 Bohr mag/cell

     iteration # 15     ecut=    44.10 Ry     beta=0.10
     Davidson diagonalization with overlap
     ethr =  1.37E-05,  avg # of iterations =  8.3

     negative rho (up, down):  1.293E-02 1.473E-02
 
     Adding external electric field

     Computed dipole along edir(3) : 
        Dipole               -0.1900 Ry au,         -0.4829 Debye
        Dipole field         -0.0002 Ry au
 
        Potential amp.        0.0278 Ry
        Total length         73.7482 bohr
 
 
     Adding external electric field

     Computed dipole along edir(3) : 
        Dipole               -0.1900 Ry au,         -0.4829 Debye
        Dipole field         -0.0002 Ry au
 
        Potential amp.        0.0278 Ry
        Total length         73.7482 bohr
 
 
     Magnetic moment per site:
     atom:    1    charge:    3.2187    magn:    0.9866    constr:    0.0000
     atom:    2    charge:    3.2158    magn:    0.9965    constr:    0.0000
     atom:    3    charge:    3.2187    magn:    0.9866    constr:    0.0000
     atom:    4    charge:    3.1837    magn:    0.6922    constr:    0.0000
     atom:    5    charge:    3.2093    magn:    0.9981    constr:    0.0000
     atom:    6    charge:    3.2093    magn:    0.9981    constr:    0.0000
     atom:    7    charge:    3.2029    magn:    0.9783    constr:    0.0000
     atom:    8    charge:    3.2019    magn:    0.9783    constr:    0.0000
     atom:    9    charge:    3.2029    magn:    0.9784    constr:    0.0000
     atom:   10    charge:    3.1996    magn:    0.9558    constr:    0.0000
     atom:   11    charge:    3.2002    magn:    0.9593    constr:    0.0000
     atom:   12    charge:    3.2002    magn:    0.9593    constr:    0.0000
     atom:   13    charge:    3.2011    magn:    0.9519    constr:    0.0000
     atom:   14    charge:    3.2008    magn:    0.9540    constr:    0.0000
     atom:   15    charge:    3.2011    magn:    0.9519    constr:    0.0000
     atom:   16    charge:    3.1996    magn:    0.9558    constr:    0.0000
     atom:   17    charge:    3.1998    magn:    0.9568    constr:    0.0000
     atom:   18    charge:    3.1998    magn:    0.9568    constr:    0.0000
     atom:   19    charge:    3.1997    magn:    0.9572    constr:    0.0000
     atom:   20    charge:    3.1994    magn:    0.9546    constr:    0.0000
     atom:   21    charge:    3.1997    magn:    0.9572    constr:    0.0000
     atom:   22    charge:    3.2012    magn:    0.9602    constr:    0.0000
     atom:   23    charge:    3.2010    magn:    0.9600    constr:    0.0000
     atom:   24    charge:    3.2010    magn:    0.9600    constr:    0.0000
     atom:   25    charge:    3.2008    magn:    0.9610    constr:    0.0000
     atom:   26    charge:    3.2008    magn:    0.9614    constr:    0.0000
     atom:   27    charge:    3.2008    magn:    0.9610    constr:    0.0000
     atom:   28    charge:    3.2028    magn:    0.9695    constr:    0.0000
     atom:   29    charge:    3.2028    magn:    0.9683    constr:    0.0000
     atom:   30    charge:    3.2028    magn:    0.9683    constr:    0.0000
     atom:   31    charge:    3.2080    magn:    0.9838    constr:    0.0000
     atom:   32    charge:    3.2081    magn:    0.9826    constr:    0.0000
     atom:   33    charge:    3.2080    magn:    0.9838    constr:    0.0000
     atom:   34    charge:    3.2182    magn:    0.9841    constr:    0.0000
     atom:   35    charge:    3.2183    magn:    0.9840    constr:    0.0000
     atom:   36    charge:    3.2183    magn:    0.9840    constr:    0.0000
     atom:   37    charge:    0.5741    magn:    0.2103    constr:    0.0000

     total cpu time spent up to now is     1680.6 secs

     total energy              =   -2896.86368268 Ry
     Harris-Foulkes estimate   =   -2896.86066434 Ry
     estimated scf accuracy    <       0.03941802 Ry

     total magnetization       =    63.28 Bohr mag/cell
     absolute magnetization    =    68.52 Bohr mag/cell

     iteration # 16     ecut=    44.10 Ry     beta=0.10
     Davidson diagonalization with overlap
     ethr =  1.20E-05,  avg # of iterations =  1.0

     negative rho (up, down):  1.209E-02 1.438E-02
 
     Adding external electric field

     Computed dipole along edir(3) : 
        Dipole               -0.2430 Ry au,         -0.6176 Debye
        Dipole field         -0.0002 Ry au
 
        Potential amp.        0.0355 Ry
        Total length         73.7482 bohr
 
 
     Adding external electric field

     Computed dipole along edir(3) : 
        Dipole               -0.2430 Ry au,         -0.6176 Debye
        Dipole field         -0.0002 Ry au
 
        Potential amp.        0.0355 Ry
        Total length         73.7482 bohr
 
 
     Magnetic moment per site:
     atom:    1    charge:    3.2187    magn:    0.9863    constr:    0.0000
     atom:    2    charge:    3.2157    magn:    0.9962    constr:    0.0000
     atom:    3    charge:    3.2187    magn:    0.9863    constr:    0.0000
     atom:    4    charge:    3.1840    magn:    0.6929    constr:    0.0000
     atom:    5    charge:    3.2093    magn:    0.9979    constr:    0.0000
     atom:    6    charge:    3.2093    magn:    0.9979    constr:    0.0000
     atom:    7    charge:    3.2031    magn:    0.9781    constr:    0.0000
     atom:    8    charge:    3.2019    magn:    0.9781    constr:    0.0000
     atom:    9    charge:    3.2031    magn:    0.9781    constr:    0.0000
     atom:   10    charge:    3.1999    magn:    0.9556    constr:    0.0000
     atom:   11    charge:    3.2005    magn:    0.9591    constr:    0.0000
     atom:   12    charge:    3.2005    magn:    0.9591    constr:    0.0000
     atom:   13    charge:    3.2011    magn:    0.9518    constr:    0.0000
     atom:   14    charge:    3.2008    magn:    0.9539    constr:    0.0000
     atom:   15    charge:    3.2011    magn:    0.9518    constr:    0.0000
     atom:   16    charge:    3.1997    magn:    0.9557    constr:    0.0000
     atom:   17    charge:    3.1999    magn:    0.9567    constr:    0.0000
     atom:   18    charge:    3.1999    magn:    0.9567    constr:    0.0000
     atom:   19    charge:    3.1998    magn:    0.9571    constr:    0.0000
     atom:   20    charge:    3.1994    magn:    0.9545    constr:    0.0000
     atom:   21    charge:    3.1998    magn:    0.9571    constr:    0.0000
     atom:   22    charge:    3.2011    magn:    0.9602    constr:    0.0000
     atom:   23    charge:    3.2009    magn:    0.9600    constr:    0.0000
     atom:   24    charge:    3.2009    magn:    0.9600    constr:    0.0000
     atom:   25    charge:    3.2006    magn:    0.9610    constr:    0.0000
     atom:   26    charge:    3.2006    magn:    0.9614    constr:    0.0000
     atom:   27    charge:    3.2006    magn:    0.9610    constr:    0.0000
     atom:   28    charge:    3.2025    magn:    0.9695    constr:    0.0000
     atom:   29    charge:    3.2025    magn:    0.9683    constr:    0.0000
     atom:   30    charge:    3.2025    magn:    0.9683    constr:    0.0000
     atom:   31    charge:    3.2076    magn:    0.9839    constr:    0.0000
     atom:   32    charge:    3.2075    magn:    0.9827    constr:    0.0000
     atom:   33    charge:    3.2076    magn:    0.9839    constr:    0.0000
     atom:   34    charge:    3.2180    magn:    0.9839    constr:    0.0000
     atom:   35    charge:    3.2179    magn:    0.9839    constr:    0.0000
     atom:   36    charge:    3.2179    magn:    0.9839    constr:    0.0000
     atom:   37    charge:    0.5743    magn:    0.2111    constr:    0.0000

     total cpu time spent up to now is     1773.7 secs

     total energy              =   -2896.86154560 Ry
     Harris-Foulkes estimate   =   -2896.86839161 Ry
     estimated scf accuracy    <       0.66154835 Ry

     total magnetization       =    63.16 Bohr mag/cell
     absolute magnetization    =    68.51 Bohr mag/cell

     iteration # 17     ecut=    44.10 Ry     beta=0.10
     Davidson diagonalization with overlap
     ethr =  1.20E-05,  avg # of iterations =  1.0

     negative rho (up, down):  1.125E-02 1.439E-02
 
     Adding external electric field

     Computed dipole along edir(3) : 
        Dipole               -0.2514 Ry au,         -0.6391 Debye
        Dipole field         -0.0002 Ry au
 
        Potential amp.        0.0367 Ry
        Total length         73.7482 bohr
 
 
     Adding external electric field

     Computed dipole along edir(3) : 
        Dipole               -0.2514 Ry au,         -0.6391 Debye
        Dipole field         -0.0002 Ry au
 
        Potential amp.        0.0367 Ry
        Total length         73.7482 bohr
 
 
     Magnetic moment per site:
     atom:    1    charge:    3.2192    magn:    0.9840    constr:    0.0000
     atom:    2    charge:    3.2173    magn:    0.9956    constr:    0.0000
     atom:    3    charge:    3.2192    magn:    0.9840    constr:    0.0000
     atom:    4    charge:    3.1842    magn:    0.6641    constr:    0.0000
     atom:    5    charge:    3.2097    magn:    0.9945    constr:    0.0000
     atom:    6    charge:    3.2097    magn:    0.9945    constr:    0.0000
     atom:    7    charge:    3.2033    magn:    0.9743    constr:    0.0000
     atom:    8    charge:    3.2025    magn:    0.9747    constr:    0.0000
     atom:    9    charge:    3.2032    magn:    0.9743    constr:    0.0000
     atom:   10    charge:    3.1997    magn:    0.9502    constr:    0.0000
     atom:   11    charge:    3.2005    magn:    0.9534    constr:    0.0000
     atom:   12    charge:    3.2005    magn:    0.9534    constr:    0.0000
     atom:   13    charge:    3.2006    magn:    0.9467    constr:    0.0000
     atom:   14    charge:    3.2006    magn:    0.9490    constr:    0.0000
     atom:   15    charge:    3.2006    magn:    0.9467    constr:    0.0000
     atom:   16    charge:    3.1995    magn:    0.9509    constr:    0.0000
     atom:   17    charge:    3.1998    magn:    0.9518    constr:    0.0000
     atom:   18    charge:    3.1998    magn:    0.9518    constr:    0.0000
     atom:   19    charge:    3.1994    magn:    0.9525    constr:    0.0000
     atom:   20    charge:    3.1990    magn:    0.9506    constr:    0.0000
     atom:   21    charge:    3.1994    magn:    0.9525    constr:    0.0000
     atom:   22    charge:    3.2006    magn:    0.9559    constr:    0.0000
     atom:   23    charge:    3.2003    magn:    0.9559    constr:    0.0000
     atom:   24    charge:    3.2003    magn:    0.9559    constr:    0.0000
     atom:   25    charge:    3.2004    magn:    0.9565    constr:    0.0000
     atom:   26    charge:    3.2002    magn:    0.9568    constr:    0.0000
     atom:   27    charge:    3.2004    magn:    0.9565    constr:    0.0000
     atom:   28    charge:    3.2025    magn:    0.9662    constr:    0.0000
     atom:   29    charge:    3.2022    magn:    0.9656    constr:    0.0000
     atom:   30    charge:    3.2022    magn:    0.9656    constr:    0.0000
     atom:   31    charge:    3.2079    magn:    0.9810    constr:    0.0000
     atom:   32    charge:    3.2077    magn:    0.9803    constr:    0.0000
     atom:   33    charge:    3.2079    magn:    0.9810    constr:    0.0000
     atom:   34    charge:    3.2194    magn:    0.9818    constr:    0.0000
     atom:   35    charge:    3.2190    magn:    0.9819    constr:    0.0000
     atom:   36    charge:    3.2190    magn:    0.9819    constr:    0.0000
     atom:   37    charge:    0.5717    magn:    0.1894    constr:    0.0000

     total cpu time spent up to now is     1866.9 secs

     total energy              =   -2896.87182534 Ry
     Harris-Foulkes estimate   =   -2896.86548456 Ry
     estimated scf accuracy    <       0.02077441 Ry

     total magnetization       =    63.06 Bohr mag/cell
     absolute magnetization    =    68.44 Bohr mag/cell

     iteration # 18     ecut=    44.10 Ry     beta=0.10
     Davidson diagonalization with overlap
     ethr =  6.33E-06,  avg # of iterations =  2.3

     negative rho (up, down):  1.052E-02 1.442E-02
 
     Adding external electric field

     Computed dipole along edir(3) : 
        Dipole               -0.2721 Ry au,         -0.6917 Debye
        Dipole field         -0.0003 Ry au
 
        Potential amp.        0.0398 Ry
        Total length         73.7482 bohr
 
 
     Adding external electric field

     Computed dipole along edir(3) : 
        Dipole               -0.2721 Ry au,         -0.6917 Debye
        Dipole field         -0.0003 Ry au
 
        Potential amp.        0.0398 Ry
        Total length         73.7482 bohr
 
 
     Magnetic moment per site:
     atom:    1    charge:    3.2203    magn:    0.9814    constr:    0.0000
     atom:    2    charge:    3.2185    magn:    0.9950    constr:    0.0000
     atom:    3    charge:    3.2203    magn:    0.9814    constr:    0.0000
     atom:    4    charge:    3.1838    magn:    0.6409    constr:    0.0000
     atom:    5    charge:    3.2101    magn:    0.9916    constr:    0.0000
     atom:    6    charge:    3.2101    magn:    0.9916    constr:    0.0000
     atom:    7    charge:    3.2036    magn:    0.9711    constr:    0.0000
     atom:    8    charge:    3.2031    magn:    0.9720    constr:    0.0000
     atom:    9    charge:    3.2036    magn:    0.9711    constr:    0.0000
     atom:   10    charge:    3.1992    magn:    0.9463    constr:    0.0000
     atom:   11    charge:    3.2000    magn:    0.9494    constr:    0.0000
     atom:   12    charge:    3.2000    magn:    0.9494    constr:    0.0000
     atom:   13    charge:    3.2003    magn:    0.9426    constr:    0.0000
     atom:   14    charge:    3.2003    magn:    0.9454    constr:    0.0000
     atom:   15    charge:    3.2003    magn:    0.9426    constr:    0.0000
     atom:   16    charge:    3.1990    magn:    0.9475    constr:    0.0000
     atom:   17    charge:    3.1993    magn:    0.9482    constr:    0.0000
     atom:   18    charge:    3.1993    magn:    0.9482    constr:    0.0000
     atom:   19    charge:    3.1989    magn:    0.9490    constr:    0.0000
[...]
    -2.5429  -2.5267  -2.5189  -2.5012  -2.4647  -2.4482  -2.4384  -2.4106
    -2.3811  -2.3618  -2.3532  -2.3226  -2.3002  -2.2758  -2.2523  -2.2459
    -2.2272  -2.2188  -2.1992  -2.1937  -2.1853  -2.1459  -2.1295  -2.1164
    -2.0977  -2.0806  -2.0565  -2.0475  -2.0148  -1.9945  -1.9793  -1.9645
    -1.9427  -1.9348  -1.9215  -1.9071  -1.8785  -1.8714  -1.8356  -1.8137
    -1.7880  -1.7701  -1.7497  -1.7086  -1.6936  -1.6678  -1.6553  -1.6483
    -1.6191  -1.6069  -1.5989  -1.5879  -1.5802  -1.5680  -1.5122  -1.4989
    -1.4909  -1.4550  -1.4378  -1.4103  -1.4021  -1.3802  -1.3102  -1.0527
    -0.9235  -0.8430  -0.5878  -0.4264  -0.1994  -0.0580   0.0284   0.2429
     0.3018   0.3821   0.4967   0.7949   1.0252   1.3828   1.4418   1.6016
     1.7063   1.7968   2.0815   2.2438   2.4551   2.5607   2.8410   3.0607
     3.1774   3.3003   3.6873   3.7301   3.9142   4.1846   4.2143   4.3330
     4.3860   4.4776   4.6837   4.7869   4.8246   4.8625   5.0124   5.0747
     5.1964   5.2605   5.3418   5.4662   5.4939   5.5417   5.6448   5.6675
     5.7697   5.8086   5.8309   5.8818   6.0102   6.0492   6.1408   6.1788
     6.2134   6.2661   6.3573   6.4390   6.4962   6.5364   6.5730   6.6109
     6.6725   6.7737   6.8882   6.9117   6.9849   7.0447   7.0631   7.1599

 ------ SPIN DOWN ----------


          k = 0.0000 0.0000 0.0000 ( 62705 PWs)   bands (ev):

   -11.6658  -9.1083  -7.8143  -6.6207  -6.6013  -6.1154  -5.7647  -5.7216
    -5.6549  -5.5602  -5.0144  -4.9181  -4.7606  -4.6742  -4.5690  -4.4796
    -4.4058  -4.3978  -4.3504  -4.3294  -4.2620  -4.1592  -4.1433  -4.0397
    -3.9847  -3.9628  -3.9459  -3.8681  -3.8275  -3.6813  -3.6606  -3.6236
    -3.5549  -3.5313  -3.5292  -3.5194  -3.4947  -3.4518  -3.3538  -3.3162
    -3.2870  -3.2636  -3.2339  -3.1145  -3.1090  -3.0717  -3.0268  -3.0105
    -2.9601  -2.7829  -2.7616  -2.7456  -2.6946  -2.6930  -2.6727  -2.6239
    -2.6218  -2.5676  -2.5255  -2.5248  -2.5018  -2.4968  -2.4897  -2.4745
    -2.3916  -2.3554  -2.3477  -2.3334  -2.3220  -2.2429  -2.2292  -2.2246
    -2.1786  -2.1299  -2.1280  -2.0911  -2.0840  -2.0795  -2.0384  -2.0171
    -1.9844  -1.9262  -1.9058  -1.8954  -1.8849  -1.8320  -1.8102  -1.7900
    -1.7181  -1.7127  -1.6784  -1.6635  -1.6396  -1.6263  -1.6218  -1.6084
    -1.5990  -1.5897  -1.5484  -1.5305  -1.5267  -1.4983  -1.4966  -1.4630
    -1.4557  -1.4221  -1.4107  -1.4081  -1.3457  -1.3264  -1.3126  -1.3084
    -1.2934  -1.2133  -1.1869  -1.1603  -1.1550  -1.1353  -1.0886  -1.0885
    -1.0141  -0.9638  -0.9544  -0.9096  -0.8989  -0.8960  -0.8533  -0.7943
    -0.7681  -0.7462  -0.7059  -0.6911  -0.6868  -0.6539  -0.6420  -0.5399
    -0.5329  -0.5074  -0.5032  -0.4507  -0.4382  -0.4250  -0.4031  -0.4028
    -0.3632  -0.3471  -0.3302  -0.3191  -0.2990  -0.2833  -0.2397  -0.2314
    -0.2218  -0.2019  -0.1830  -0.1814  -0.1743  -0.1699  -0.1551  -0.1174
    -0.0911  -0.0772  -0.0674  -0.0498  -0.0475  -0.0375  -0.0035   0.0251
     0.0781   0.0935   0.1239   0.1299   0.1508   0.1567   0.1672   0.1946
     0.1952   0.2248   0.2434   0.2446   0.2692   0.2738   0.2826   0.2903
     0.3172   0.3198   0.3354   0.3412   0.3719   0.4763   0.5241   0.5414
     0.5690   0.5810   0.6455   0.9916   1.1875   1.2576   1.2959   1.3853
     1.4854   1.5143   1.5701   1.6167   1.7972   2.0064   2.0826   2.1981
     2.2250   2.3282   2.5054   2.6156   2.9441   3.1297   3.1563   3.2854
     3.2867   3.3490   3.4795   3.5770   3.6592   3.8643   3.9994   4.0838
     4.2860   4.5374   4.5644   4.8306   4.9960   5.0303   5.0543   5.3690
     5.4048   5.4811   5.5740   5.7565   5.7640   5.8410   6.0445   6.1032
     6.1047   6.1723   6.1924   6.2563   6.5046   6.5110   6.5811   6.6144
     6.6748   6.7147   6.8277   6.9277   7.0347   7.0702   7.1068   7.1698
     7.2567   7.3164   7.3297   7.4761   7.4858   7.4911   7.5202   7.5566

          k = 0.0000 0.0440 0.0000 ( 62728 PWs)   bands (ev):

   -11.6578  -8.8087  -7.9403  -7.5404  -6.7617  -5.8881  -5.5248  -5.4139
    -5.2801  -5.1445  -4.9886  -4.8313  -4.7883  -4.7186  -4.5675  -4.5342
    -4.4314  -4.3890  -4.3440  -4.3305  -4.2215  -4.1940  -4.1424  -4.0415
    -4.0031  -3.9350  -3.9135  -3.8630  -3.8348  -3.7785  -3.7272  -3.7007
    -3.6670  -3.6603  -3.6468  -3.5791  -3.5438  -3.4789  -3.4474  -3.3772
    -3.3014  -3.2455  -3.2018  -3.1797  -3.1123  -3.0881  -2.9994  -2.9458
    -2.9256  -2.8257  -2.7713  -2.7585  -2.7242  -2.7009  -2.6626  -2.6596
    -2.6178  -2.6069  -2.5909  -2.5832  -2.5294  -2.4878  -2.4512  -2.4353
    -2.4257  -2.3600  -2.3265  -2.3160  -2.2873  -2.2750  -2.2264  -2.1950
    -2.1496  -2.1338  -2.1163  -2.0962  -2.0727  -2.0500  -2.0262  -2.0007
    -1.9731  -1.9452  -1.9371  -1.9173  -1.8932  -1.8728  -1.8328  -1.8217
    -1.7954  -1.7605  -1.7377  -1.7255  -1.7224  -1.6828  -1.6498  -1.6380
    -1.5988  -1.5828  -1.5670  -1.5498  -1.5248  -1.4915  -1.4904  -1.4666
    -1.4292  -1.4280  -1.3983  -1.3495  -1.3380  -1.3225  -1.3208  -1.2380
    -1.2192  -1.2016  -1.1812  -1.1433  -1.1115  -1.1086  -1.0924  -1.0693
    -1.0635  -1.0214  -0.9909  -0.9849  -0.9751  -0.9291  -0.8996  -0.8829
    -0.8342  -0.8226  -0.7787  -0.7223  -0.7046  -0.6719  -0.6617  -0.6312
    -0.6001  -0.5770  -0.5682  -0.5320  -0.5009  -0.4704  -0.4363  -0.4176
    -0.4031  -0.3903  -0.3792  -0.3653  -0.3519  -0.3328  -0.3068  -0.2705
    -0.2550  -0.2463  -0.2165  -0.2030  -0.1730  -0.1468  -0.1071  -0.0717
    -0.0520  -0.0169   0.0007   0.0198   0.0597   0.0874   0.1114   0.1154
     0.1244   0.1480   0.1556   0.1756   0.2019   0.2090   0.2225   0.2333
     0.2689   0.2782   0.2860   0.3134   0.3206   0.3322   0.3478   0.3689
     0.3762   0.4022   0.4144   0.4397   0.4501   0.6558   0.7002   0.8052
     0.8815   0.9364   0.9714   0.9980   1.0875   1.2272   1.3477   1.3922
     1.5557   1.6386   1.7255   1.8655   1.9289   2.1600   2.2983   2.3564
     2.4056   2.4575   2.5624   2.6156   2.7255   2.8138   2.9355   3.0170
     3.2592   3.3478   3.4440   3.6958   3.7245   3.8202   3.8399   3.9163
     4.0604   4.1898   4.1991   4.3242   4.4007   4.5696   4.7134   4.7686
     4.8948   5.0897   5.2483   5.2649   5.3078   5.5310   5.6856   5.8184
     6.0199   6.1349   6.3713   6.4250   6.5107   6.5929   6.6636   6.8561
     6.8816   7.1615   7.2172   7.2443   7.2856   7.3684   7.4223   7.4972
     7.5698   7.6051   7.6557   7.6949   7.7639   7.7958   7.8232   7.8501

          k = 0.0538 0.0000 0.0000 ( 62649 PWs)   bands (ev):

   -11.6514  -8.6566  -7.4604  -7.3309  -6.3490  -6.2885  -6.2227  -5.8031
    -5.5669  -5.4405  -5.3311  -5.3187  -5.0633  -4.9850  -4.8377  -4.7179
    -4.6644  -4.5655  -4.4550  -4.2672  -4.1433  -4.1358  -4.0996  -3.8593
    -3.8429  -3.8358  -3.8009  -3.7408  -3.6232  -3.5450  -3.4749  -3.4522
    -3.4313  -3.4206  -3.4010  -3.3879  -3.3699  -3.3472  -3.3198  -3.2707
    -3.2682  -3.2406  -3.1739  -3.1593  -3.1467  -3.0939  -3.0225  -3.0149
    -2.9507  -2.9200  -2.8638  -2.8475  -2.8207  -2.7518  -2.7440  -2.6411
    -2.6326  -2.5994  -2.5558  -2.5355  -2.5070  -2.4916  -2.4763  -2.4334
    -2.4088  -2.3469  -2.3409  -2.3111  -2.2843  -2.2303  -2.1763  -2.1645
    -2.1538  -2.0944  -2.0800  -2.0655  -2.0304  -2.0070  -1.9881  -1.9073
    -1.8685  -1.8436  -1.8395  -1.8124  -1.8095  -1.7929  -1.7638  -1.7421
    -1.7398  -1.6973  -1.6697  -1.6681  -1.6343  -1.6282  -1.6127  -1.6016
    -1.5770  -1.5684  -1.5420  -1.5354  -1.5211  -1.5096  -1.4971  -1.4723
    -1.4564  -1.4527  -1.4110  -1.4056  -1.3976  -1.3833  -1.3155  -1.3027
    -1.2679  -1.2500  -1.2012  -1.1576  -1.1404  -1.1085  -1.0930  -1.0651
    -1.0059  -0.9869  -0.9387  -0.9067  -0.8771  -0.8650  -0.8267  -0.7806
    -0.7438  -0.7344  -0.7051  -0.6616  -0.5812  -0.5602  -0.5421  -0.5397
    -0.5167  -0.4874  -0.4790  -0.4778  -0.4513  -0.4301  -0.4230  -0.3871
    -0.3717  -0.3498  -0.3471  -0.3116  -0.3045  -0.2798  -0.2545  -0.2439
    -0.2156  -0.2066  -0.1945  -0.1834  -0.1659  -0.1314  -0.1147  -0.0979
    -0.0947  -0.0585  -0.0523  -0.0335  -0.0303  -0.0081  -0.0031   0.0146
     0.0655   0.0874   0.0892   0.0969   0.1068   0.1262   0.1596   0.1607
     0.1824   0.2200   0.2408   0.2534   0.2587   0.2763   0.2905   0.2990
     0.3133   0.3162   0.3326   0.3428   0.3580   0.3748   0.3822   0.4166
     0.4373   0.4432   0.4835   0.5556   0.5606   0.6592   0.7369   0.8134
     1.0194   1.0838   1.1978   1.5889   1.8834   1.8994   2.2347   2.4377
     2.5499   3.0205   3.2258   3.3603   3.5405   3.7361   3.8701   3.9744
     3.9972   4.0300   4.0967   4.2424   4.3156   4.4594   4.5224   4.6424
     4.6838   4.8217   4.8547   4.9981   5.1628   5.2037   5.3123   5.3884
     5.4379   5.5389   5.5948   5.7507   5.7866   5.8146   5.9706   5.9849
     6.1091   6.1975   6.2131   6.3111   6.4464   6.4708   6.5413   6.6072
     6.6111   6.6677   6.6766   6.7069   6.7568   6.9364   6.9690   6.9885
     6.9998   7.0582   7.0922   7.1634   7.2194   7.2496   7.3550   7.3662

          k = 0.0538 0.0440 0.0000 ( 62686 PWs)   bands (ev):

   -11.6450  -8.3631  -7.5266  -7.1959  -7.0554  -6.4746  -6.3029  -6.0500
    -5.6251  -5.4196  -5.1002  -5.0235  -4.8250  -4.7576  -4.6224  -4.5549
    -4.5181  -4.4592  -4.4253  -4.3095  -4.2240  -4.1423  -4.0620  -4.0131
    -3.9224  -3.9033  -3.8594  -3.7699  -3.6941  -3.6683  -3.6271  -3.6018
    -3.5655  -3.5412  -3.4700  -3.4409  -3.4271  -3.3663  -3.2803  -3.2343
    -3.2039  -3.1650  -3.1332  -3.1150  -3.0884  -3.0489  -3.0091  -2.9694
    -2.9560  -2.9001  -2.8716  -2.8263  -2.7812  -2.7629  -2.7277  -2.6901
    -2.6694  -2.5888  -2.5588  -2.5359  -2.5202  -2.4646  -2.4473  -2.3981
    -2.3716  -2.3460  -2.3001  -2.2902  -2.2741  -2.2355  -2.2095  -2.1917
    -2.1641  -2.1186  -2.1059  -2.0750  -2.0427  -2.0236  -1.9990  -1.9818
    -1.9432  -1.9145  -1.8980  -1.8594  -1.8483  -1.8209  -1.8044  -1.8004
    -1.7674  -1.7568  -1.7186  -1.7025  -1.6594  -1.6232  -1.6077  -1.5920
    -1.5613  -1.5422  -1.5252  -1.5032  -1.4788  -1.4680  -1.4521  -1.4344
    -1.4164  -1.3970  -1.3842  -1.3575  -1.3291  -1.3145  -1.2912  -1.2712
    -1.2471  -1.2342  -1.2052  -1.1638  -1.1337  -1.1117  -1.0909  -1.0749
    -1.0407  -1.0099  -0.9894  -0.9641  -0.9315  -0.9118  -0.8935  -0.8804
    -0.8281  -0.8005  -0.7727  -0.7620  -0.7317  -0.6883  -0.6434  -0.6112
    -0.5828  -0.5503  -0.5237  -0.5058  -0.4758  -0.4607  -0.4401  -0.4336
    -0.4141  -0.3829  -0.3540  -0.3380  -0.3232  -0.2912  -0.2823  -0.2441
    -0.2333  -0.2059  -0.1905  -0.1734  -0.1566  -0.1488  -0.1172  -0.1060
    -0.0748  -0.0621  -0.0328  -0.0230   0.0044   0.0334   0.0510   0.0678
     0.1025   0.1224   0.1437   0.1516   0.1817   0.2060   0.2425   0.2461
     0.2710   0.2892   0.3007   0.3091   0.3190   0.3254   0.3535   0.3829
     0.3933   0.3974   0.4042   0.4340   0.4434   0.4556   0.4705   0.4793
     0.5332   0.5999   0.7713   0.8611   1.0032   1.0280   1.1495   1.2141
     1.2719   1.3094   1.4507   1.6460   1.7817   2.1314   2.2361   2.4068
     2.5159   2.6234   2.7899   2.9366   3.0505   3.2131   3.4756   3.6078
     3.7275   3.7779   3.8934   4.1066   4.1981   4.2101   4.3381   4.5155
     4.6774   4.7554   4.8013   4.8558   4.9665   5.0302   5.0658   5.1783
     5.2444   5.3872   5.4763   5.5071   5.5463   5.6189   5.6492   5.7933
     5.8427   5.8642   6.0096   6.0741   6.2026   6.2417   6.2941   6.4008
     6.4606   6.5241   6.5603   6.6254   6.6753   6.7240   6.8307   6.8426
     6.9767   7.0060   7.0380   7.1068   7.1709   7.2307   7.3598   7.4117

          k = 0.0538-0.0440 0.0000 ( 62686 PWs)   bands (ev):

   -11.6450  -8.3631  -7.5266  -7.1959  -7.0554  -6.4746  -6.3029  -6.0501
    -5.6250  -5.4193  -5.1003  -5.0232  -4.8256  -4.7574  -4.6227  -4.5546
    -4.5179  -4.4592  -4.4253  -4.3094  -4.2244  -4.1421  -4.0621  -4.0130
    -3.9224  -3.9034  -3.8594  -3.7699  -3.6942  -3.6683  -3.6270  -3.6017
    -3.5656  -3.5410  -3.4700  -3.4408  -3.4272  -3.3663  -3.2804  -3.2344
    -3.2039  -3.1648  -3.1332  -3.1152  -3.0882  -3.0491  -3.0091  -2.9694
    -2.9560  -2.9001  -2.8717  -2.8263  -2.7808  -2.7628  -2.7278  -2.6901
    -2.6694  -2.5888  -2.5588  -2.5360  -2.5202  -2.4646  -2.4473  -2.3984
    -2.3716  -2.3461  -2.2999  -2.2903  -2.2742  -2.2355  -2.2095  -2.1917
    -2.1642  -2.1185  -2.1060  -2.0750  -2.0427  -2.0235  -1.9990  -1.9812
    -1.9432  -1.9146  -1.8981  -1.8594  -1.8484  -1.8210  -1.8043  -1.8003
    -1.7674  -1.7568  -1.7187  -1.7026  -1.6595  -1.6229  -1.6076  -1.5919
    -1.5612  -1.5424  -1.5254  -1.5034  -1.4788  -1.4679  -1.4521  -1.4343
    -1.4165  -1.3970  -1.3842  -1.3574  -1.3292  -1.3147  -1.2910  -1.2711
    -1.2470  -1.2345  -1.2051  -1.1640  -1.1337  -1.1119  -1.0908  -1.0749
    -1.0407  -1.0099  -0.9893  -0.9639  -0.9314  -0.9119  -0.8934  -0.8805
    -0.8281  -0.8003  -0.7727  -0.7621  -0.7317  -0.6883  -0.6435  -0.6112
    -0.5827  -0.5503  -0.5239  -0.5057  -0.4758  -0.4607  -0.4400  -0.4336
    -0.4141  -0.3829  -0.3540  -0.3380  -0.3230  -0.2912  -0.2822  -0.2443
    -0.2335  -0.2058  -0.1905  -0.1733  -0.1565  -0.1488  -0.1173  -0.1059
    -0.0748  -0.0620  -0.0328  -0.0231   0.0045   0.0334   0.0510   0.0677
     0.1025   0.1225   0.1437   0.1516   0.1817   0.2060   0.2425   0.2461
     0.2710   0.2892   0.3007   0.3091   0.3190   0.3254   0.3535   0.3829
     0.3933   0.3974   0.4042   0.4339   0.4435   0.4555   0.4705   0.4793
     0.5332   0.5999   0.7713   0.8614   1.0031   1.0277   1.1496   1.2140
     1.2718   1.3095   1.4508   1.6460   1.7814   2.1313   2.2361   2.4074
     2.5153   2.6235   2.7898   2.9372   3.0502   3.2133   3.4755   3.6078
     3.7273   3.7780   3.8935   4.1066   4.1982   4.2101   4.3380   4.5157
     4.6772   4.7551   4.8019   4.8557   4.9666   5.0298   5.0662   5.1784
     5.2441   5.3876   5.4760   5.5070   5.5460   5.6188   5.6497   5.7938
     5.8423   5.8641   6.0097   6.0743   6.2031   6.2418   6.2931   6.4010
     6.4605   6.5240   6.5607   6.6251   6.6753   6.7241   6.8307   6.8427
     6.9767   7.0065   7.0377   7.1062   7.1709   7.2311   7.3594   7.4115

     the Fermi energy is    -0.6637 ev

!    total energy              =   -2897.08033970 Ry
     Harris-Foulkes estimate   =   -2897.08003580 Ry
     estimated scf accuracy    <       0.00000044 Ry

     The total energy is the sum of the following terms:

     one-electron contribution =  -61805.65478303 Ry
     hartree contribution      =   31200.44703074 Ry
     xc contribution           =   -1331.38777704 Ry
     ewald contribution        =   29039.62324469 Ry
     electric field correction =       0.00005248 Ry
     smearing contrib. (-TS)   =      -0.10810753 Ry

     total magnetization       =    60.64 Bohr mag/cell
     absolute magnetization    =    67.20 Bohr mag/cell

     convergence has been achieved in  16 iterations

     Forces acting on atoms (Ry/au):


     negative rho (up, down):  6.044E-03 1.791E-02
     atom    1 type  1   force =     0.00044951    0.00022041    0.00019995
     atom    2 type  1   force =     0.00137616   -0.00023533    0.00101095
     atom    3 type  1   force =    -0.00007162    0.00077167    0.00074793
     atom    4 type  1   force =     0.00111442   -0.00000606   -0.00074011
     atom    5 type  1   force =     0.00058906    0.00065708    0.00005414
     atom    6 type  1   force =     0.00048762   -0.00065868    0.00008968
     atom    7 type  1   force =     0.00061190    0.00023960    0.00067717
     atom    8 type  1   force =     0.00027654   -0.00006340   -0.00187677
     atom    9 type  1   force =     0.00073132   -0.00016846    0.00064570
     atom   10 type  1   force =     0.00088870    0.00007470    0.00025993
     atom   11 type  1   force =     0.00049618    0.00015354    0.00118701
     atom   12 type  1   force =     0.00048084   -0.00023732    0.00088818
     atom   13 type  1   force =     0.00014031    0.00044844    0.00065813
     atom   14 type  1   force =     0.00047230   -0.00003332   -0.00012157
     atom   15 type  1   force =     0.00014714   -0.00038708    0.00059753
     atom   16 type  1   force =     0.00020205    0.00004229    0.00068656
     atom   17 type  1   force =     0.00011959   -0.00024105   -0.00003993
     atom   18 type  1   force =     0.00010693    0.00020452   -0.00006220
     atom   19 type  1   force =    -0.00103904   -0.00155938   -0.00628279
     atom   20 type  1   force =    -0.00261688   -0.00002119   -0.00755408
     atom   21 type  1   force =    -0.00104225    0.00158843   -0.00627343
     atom   22 type  1   force =    -0.00191528    0.00003228   -0.01010018
     atom   23 type  1   force =    -0.00171515   -0.00058574   -0.00806824
     atom   24 type  1   force =    -0.00171118    0.00057076   -0.00806185
     atom   25 type  1   force =     0.00359760    0.00059918   -0.01525521
     atom   26 type  1   force =     0.00375291   -0.00002015   -0.01629325
     atom   27 type  1   force =     0.00359728   -0.00056259   -0.01526173
     atom   28 type  1   force =     0.00068190    0.00002605   -0.00965720
     atom   29 type  1   force =     0.00147077   -0.00025810   -0.01025811
     atom   30 type  1   force =     0.00146680    0.00025165   -0.01026931
     atom   31 type  1   force =    -0.00762473    0.00014802    0.01280399
     atom   32 type  1   force =    -0.00865149   -0.00001095    0.01167984
     atom   33 type  1   force =    -0.00762318   -0.00011969    0.01279481
     atom   34 type  1   force =     0.00325328    0.00002069    0.02734229
     atom   35 type  1   force =     0.00345691    0.00051107    0.02698193
     atom   36 type  1   force =     0.00344990   -0.00052046    0.02697224
     atom   37 type  2   force =     0.00059284   -0.00087144   -0.00010204

     Total force =     0.066227     Total SCF correction =     0.002267
 !ASE

     Writing output data file calc.save
 
     init_run     :     42.05s CPU     48.49s WALL (       1 calls)
     electrons    :  61936.70s CPU  72117.20s WALL (      21 calls)
     update_pot   :     84.47s CPU     89.63s WALL (      20 calls)
     forces       :   1057.17s CPU   1098.51s WALL (      21 calls)

     Called by init_run:
     wfcinit      :     26.81s CPU     32.41s WALL (       1 calls)
     potinit      :      1.73s CPU      1.88s WALL (       1 calls)

     Called by electrons:
     c_bands      :  41557.53s CPU  49351.66s WALL (     676 calls)
     sum_band     :  13803.31s CPU  15652.15s WALL (     676 calls)
     v_of_rho     :    419.61s CPU    493.68s WALL (     697 calls)
     newd         :   6210.50s CPU   6655.12s WALL (     697 calls)
     mix_rho      :     98.31s CPU    119.58s WALL (     676 calls)

     Called by c_bands:
     init_us_2    :    173.71s CPU    191.10s WALL (   13740 calls)
     cegterg      :  40565.59s CPU  48314.88s WALL (    6760 calls)

     Called by *egterg:
     h_psi        :  21205.44s CPU  27289.11s WALL (   24305 calls)
     s_psi        :   2827.16s CPU   2934.15s WALL (   24305 calls)
     g_psi        :    102.20s CPU    104.78s WALL (   17535 calls)
     cdiaghg      :   6077.07s CPU   6235.65s WALL (   24095 calls)

     Called by h_psi:
     add_vuspsi   :   2859.63s CPU   2960.60s WALL (   24305 calls)

     General routines
     calbec       :   4408.33s CPU   4532.95s WALL (   31275 calls)
     fft          :    451.46s CPU    529.20s WALL (   21796 calls)
     ffts         :      5.34s CPU      7.43s WALL (    2746 calls)
     fftw         :  11410.25s CPU  18461.02s WALL ( 9599654 calls)
     interpolate  :     54.70s CPU     75.41s WALL (    2746 calls)
     davcio       :      0.03s CPU      0.84s WALL (      10 calls)
 
     Parallel routines
     fft_scatter  :   6805.01s CPU  10931.01s WALL ( 9624196 calls)
 
     PWSCF        :    17h35m CPU       20h26m WALL

 
   This run was terminated on:   9:52: 6  21Apr2018            

=------------------------------------------------------------------------------=
   JOB DONE.
=------------------------------------------------------------------------------=
