  python dir          : /home/vossj/suncat/lib/python2.7/site-packages/espresso
  espresso dir        : /home/vossj/suncat/esdld/espresso-dynpy-beef/bin
  pseudo dir          : /home/alatimer/bin/psp/esp_psp_w_gbrvRu/
  ase-espresso py git : ffa2778-git



     Program PWSCF v.5.1rc2 (svn rev. ) starts on 23Feb2018 at 12: 4:59 

     This program is part of the open-source Quantum ESPRESSO suite
     for quantum simulation of materials; please cite
         "P. Giannozzi et al., J. Phys.:Condens. Matter 21 395502 (2009);
          URL http://www.quantum-espresso.org", 
     in publications or presentations arising from this work. More details at
     http://www.quantum-espresso.org/quote

     Parallel version (MPI), running on    16 processors
     R & G space division:  proc/nbgrp/npool/nimage =      16
     Reading input from pw.inp
     Message from routine read_cards :
     DEPRECATED: no units specified in CELL_PARAMETERS card

     Current dimensions of program PWSCF are:
     Max number of different atomic species (ntypx) = 10
     Max number of k-points (npk) =  40000
     Max angular momentum in pseudopotentials (lmaxx) =  3
     Presently no symmetry can be used with electric field


     IMPORTANT: XC functional enforced from input :
     Exchange-correlation      = RPBE ( 1  4 28  4 0)
     Any further DFT definition will be discarded
     Please, verify this is what you really want

               file Ni.UPF: wavefunction(s)  3D renormalized

     Subspace diagonalization in iterative solution of the eigenvalue problem:
     a serial algorithm will be used

 
     Parallelization info
     --------------------
     sticks:   dense  smooth     PW     G-vecs:    dense   smooth      PW
     Min         630     252     68                99782    25206    3526
     Max         631     253     69                99791    25249    3527
     Sum       10093    4041   1091              1596589   403729   56419
 
     Generating pointlists ...
     new r_m :   0.4125 (alat units)  0.7795 (a.u.) for type    1
     new r_m :   0.4125 (alat units)  0.7795 (a.u.) for type    2


     bravais-lattice index     =            0
     lattice parameter (alat)  =       1.8897  a.u.
     unit-cell volume          =   10207.8337 (a.u.)^3
     number of atoms/cell      =           37
     number of atomic types    =            2
     number of electrons       =       364.00
     number of Kohn-Sham states=          282
     kinetic-energy cutoff     =      44.0992  Ry
     charge density cutoff     =     440.9919  Ry
     convergence threshold     =      7.3E-07
     mixing beta               =       0.1000
     number of iterations used =           10  plain     mixing
     Exchange-correlation      = RPBE ( 1  4 28  4 0)
     nstep                     =           50


     celldm(1)=   1.889726  celldm(2)=   0.000000  celldm(3)=   0.000000
     celldm(4)=   0.000000  celldm(5)=   0.000000  celldm(6)=   0.000000

     crystal axes: (cart. coord. in units of alat)
               a(1) = (  13.073539   0.000000   0.000000 )  
               a(2) = (  -4.357846   6.162925   0.000000 )  
               a(3) = (   0.000000   0.000000  18.774005 )  

     reciprocal axes: (cart. coord. in units 2 pi/alat)
               b(1) = (  0.076490  0.054087  0.000000 )  
               b(2) = (  0.000000  0.162261  0.000000 )  
               b(3) = (  0.000000  0.000000  0.053265 )  


     PseudoPot. # 1 for Ni read from file:
     /home/alatimer/bin/psp/esp_psp_w_gbrvRu/Ni.UPF
     MD5 check sum: 8b2449ee0060d9c33484ccd47bb60870
     Pseudo is Ultrasoft + core correction, Zval = 10.0
     Generated using "atomic" code by A. Dal Corso  v.5.0.2 svn rev. 9415
     Using radial grid of 1195 points,  6 beta functions with: 
                l(1) =   0
                l(2) =   0
                l(3) =   1
                l(4) =   1
                l(5) =   2
                l(6) =   2
     Q(r) pseudized with 0 coefficients 


     PseudoPot. # 2 for  C read from file:
     /home/alatimer/bin/psp/esp_psp_w_gbrvRu/C.UPF
     MD5 check sum: ab446d787031eba755f1d5ee46644bb0
     Pseudo is Ultrasoft + core correction, Zval =  4.0
     Generated using "atomic" code by A. Dal Corso  v.5.0.2 svn rev. 9415
     Using radial grid of 1073 points,  4 beta functions with: 
                l(1) =   0
                l(2) =   0
                l(3) =   1
                l(4) =   1
     Q(r) pseudized with 0 coefficients 


     atomic species   valence    mass     pseudopotential
        Ni1           10.00    58.69340     Ni( 1.00)
        C1             4.00    12.01100      C( 1.00)

     Starting magnetic structure 
     atomic species   magnetization
        Ni1          0.300
        C1           0.750

     No symmetry found



   Cartesian axes

     site n.     atom                  positions (alat units)
         1           Ni1 tau(   1) = (   0.0000000   0.0000000   7.5000000  )
         2           Ni1 tau(   2) = (   2.1789231   0.0000000   8.7580018  )
         3           Ni1 tau(   3) = (   0.0000000   0.0000000  10.0160037  )
         4           Ni1 tau(   4) = (   2.1789231   0.0000000  11.2740055  )
         5           Ni1 tau(   5) = (  -1.4526154   2.0543084   7.5000000  )
         6           Ni1 tau(   6) = (   0.7263077   2.0543084   8.7580018  )
         7           Ni1 tau(   7) = (  -1.4526154   2.0543084  10.0160037  )
         8           Ni1 tau(   8) = (   0.7263077   2.0543084  11.2740055  )
         9           Ni1 tau(   9) = (  -2.9052308   4.1086168   7.5000000  )
        10           Ni1 tau(  10) = (  -0.7263077   4.1086168   8.7580018  )
        11           Ni1 tau(  11) = (  -2.9052308   4.1086168  10.0160037  )
        12           Ni1 tau(  12) = (  -0.7263077   4.1086168  11.2740055  )
        13           Ni1 tau(  13) = (   4.3578462   0.0000000   7.5000000  )
        14           Ni1 tau(  14) = (   6.5367693   0.0000000   8.7580018  )
        15           Ni1 tau(  15) = (   4.3578462   0.0000000  10.0160037  )
        16           Ni1 tau(  16) = (   6.5367693   0.0000000  11.2740055  )
        17           Ni1 tau(  17) = (   2.9052308   2.0543084   7.5000000  )
        18           Ni1 tau(  18) = (   5.0841539   2.0543084   8.7580018  )
        19           Ni1 tau(  19) = (   2.9052308   2.0543084  10.0160037  )
        20           Ni1 tau(  20) = (   5.0841539   2.0543084  11.2740055  )
        21           Ni1 tau(  21) = (   1.4526154   4.1086168   7.5000000  )
        22           Ni1 tau(  22) = (   3.6315385   4.1086168   8.7580018  )
        23           Ni1 tau(  23) = (   1.4526154   4.1086168  10.0160037  )
        24           Ni1 tau(  24) = (   3.6315385   4.1086168  11.2740055  )
        25           Ni1 tau(  25) = (   8.7156924   0.0000000   7.5000000  )
        26           Ni1 tau(  26) = (  10.8946154   0.0000000   8.7580018  )
        27           Ni1 tau(  27) = (   8.7156924   0.0000000  10.0160037  )
        28           Ni1 tau(  28) = (  10.8946154   0.0000000  11.2740055  )
        29           Ni1 tau(  29) = (   7.2630770   2.0543084   7.5000000  )
        30           Ni1 tau(  30) = (   9.4420001   2.0543084   8.7580018  )
        31           Ni1 tau(  31) = (   7.2630770   2.0543084  10.0160037  )
        32           Ni1 tau(  32) = (   9.4420001   2.0543084  11.2740055  )
        33           Ni1 tau(  33) = (   5.8104616   4.1086168   7.5000000  )
        34           Ni1 tau(  34) = (   7.9893847   4.1086168   8.7580018  )
        35           Ni1 tau(  35) = (   5.8104616   4.1086168  10.0160037  )
        36           Ni1 tau(  36) = (   7.9893847   4.1086168  11.2740055  )
        37           C1  tau(  37) = (   0.7263077   2.0543084  13.0740055  )

     number of k points=    10  Fermi-Dirac smearing, width (Ry)=  0.0073
                       cart. coord. in units 2pi/alat
        k(    1) = (   0.0000000   0.0000000   0.0000000), wk =   0.1111111
        k(    2) = (   0.0000000   0.0540869   0.0000000), wk =   0.2222222
        k(    3) = (   0.0254968   0.0180290   0.0000000), wk =   0.2222222
        k(    4) = (   0.0254968   0.0721158   0.0000000), wk =   0.2222222
        k(    5) = (   0.0254968  -0.0360579   0.0000000), wk =   0.2222222
        k(    6) = (   0.0000000   0.0000000   0.0000000), wk =   0.1111111
        k(    7) = (   0.0000000   0.0540869   0.0000000), wk =   0.2222222
        k(    8) = (   0.0254968   0.0180290   0.0000000), wk =   0.2222222
        k(    9) = (   0.0254968   0.0721158   0.0000000), wk =   0.2222222
        k(   10) = (   0.0254968  -0.0360579   0.0000000), wk =   0.2222222

     Dense  grid:  1596589 G-vectors     FFT dimensions: ( 180,  96, 240)

     Smooth grid:   403729 G-vectors     FFT dimensions: ( 108,  64, 150)

     Largest allocated arrays     est. size (Mb)     dimensions
        Kohn-Sham Wavefunctions        13.69 Mb     (    3181,  282)
        NL pseudopotentials            31.84 Mb     (    3181,  656)
        Each V/rho on FFT grid          7.91 Mb     (  259200,   2)
        Each G-vector array             0.76 Mb     (   99791)
        G-vector shells                 0.33 Mb     (   42988)
     Largest temporary arrays     est. size (Mb)     dimensions
        Auxiliary wavefunctions        54.75 Mb     (    3181, 1128)
        Each subspace H/S matrix       19.42 Mb     (    1128, 1128)
        Each <psi_i|beta_j> matrix      2.82 Mb     (     656,  282)
        Arrays for rho mixing          39.55 Mb     (  259200,   10)

     Initial potential from superposition of free atoms
     Check: negative starting charge=(component1):   -0.000482
     Check: negative starting charge=(component2):   -0.000269

     starting charge  363.99092, renormalised to  364.00000

     negative rho (up, down):  4.820E-04 2.695E-04
 
     Adding external electric field

     Computed dipole along edir(3) : 
        Dipole               -0.0004 Ry au,         -0.0010 Debye
        Dipole field         -0.0000 Ry au
 
        Potential amp.        0.0000 Ry
        Total length         34.5908 bohr
 
 
     Adding external electric field

     Computed dipole along edir(3) : 
        Dipole               -0.0004 Ry au,         -0.0010 Debye
        Dipole field         -0.0000 Ry au
 
        Potential amp.        0.0000 Ry
        Total length         34.5908 bohr
 
     Starting wfc are  328 randomized atomic wfcs

     total cpu time spent up to now is       52.8 secs

     Self-consistent Calculation

     iteration #  1     ecut=    44.10 Ry     beta=0.10
     Davidson diagonalization with overlap
     ethr =  1.00E-02,  avg # of iterations =  7.1

     negative rho (up, down):  4.465E-04 2.479E-04
 
     Adding external electric field

     Computed dipole along edir(3) : 
        Dipole                0.1566 Ry au,          0.3981 Debye
        Dipole field          0.0002 Ry au
 
        Potential amp.       -0.0133 Ry
        Total length         34.5908 bohr
 
 
     Adding external electric field

     Computed dipole along edir(3) : 
        Dipole                0.1566 Ry au,          0.3981 Debye
        Dipole field          0.0002 Ry au
 
        Potential amp.       -0.0133 Ry
        Total length         34.5908 bohr
 
 
     Magnetic moment per site:
     atom:    1    charge:    3.9560    magn:    1.1257    constr:    0.0000
     atom:    2    charge:    3.9767    magn:    1.1071    constr:    0.0000
     atom:    3    charge:    3.9782    magn:    1.1061    constr:    0.0000
     atom:    4    charge:    3.9572    magn:    1.1245    constr:    0.0000
     atom:    5    charge:    3.9560    magn:    1.1257    constr:    0.0000
     atom:    6    charge:    3.9778    magn:    1.1057    constr:    0.0000
     atom:    7    charge:    3.9782    magn:    1.1061    constr:    0.0000
     atom:    8    charge:    3.9710    magn:    1.0938    constr:    0.0000
     atom:    9    charge:    3.9559    magn:    1.1252    constr:    0.0000
     atom:   10    charge:    3.9767    magn:    1.1070    constr:    0.0000
     atom:   11    charge:    3.9766    magn:    1.1073    constr:    0.0000
     atom:   12    charge:    3.9572    magn:    1.1245    constr:    0.0000
     atom:   13    charge:    3.9559    magn:    1.1252    constr:    0.0000
     atom:   14    charge:    3.9764    magn:    1.1072    constr:    0.0000
     atom:   15    charge:    3.9766    magn:    1.1073    constr:    0.0000
     atom:   16    charge:    3.9561    magn:    1.1250    constr:    0.0000
     atom:   17    charge:    3.9560    magn:    1.1256    constr:    0.0000
     atom:   18    charge:    3.9764    magn:    1.1072    constr:    0.0000
     atom:   19    charge:    3.9782    magn:    1.1061    constr:    0.0000
     atom:   20    charge:    3.9561    magn:    1.1250    constr:    0.0000
     atom:   21    charge:    3.9560    magn:    1.1257    constr:    0.0000
     atom:   22    charge:    3.9768    magn:    1.1072    constr:    0.0000
     atom:   23    charge:    3.9782    magn:    1.1061    constr:    0.0000
     atom:   24    charge:    3.9559    magn:    1.1251    constr:    0.0000
     atom:   25    charge:    3.9560    magn:    1.1251    constr:    0.0000
     atom:   26    charge:    3.9767    magn:    1.1072    constr:    0.0000
     atom:   27    charge:    3.9763    magn:    1.1073    constr:    0.0000
     atom:   28    charge:    3.9559    magn:    1.1251    constr:    0.0000
     atom:   29    charge:    3.9548    magn:    1.1261    constr:    0.0000
     atom:   30    charge:    3.9764    magn:    1.1072    constr:    0.0000
     atom:   31    charge:    3.9766    magn:    1.1075    constr:    0.0000
     atom:   32    charge:    3.9561    magn:    1.1250    constr:    0.0000
     atom:   33    charge:    3.9560    magn:    1.1251    constr:    0.0000
     atom:   34    charge:    3.9764    magn:    1.1072    constr:    0.0000
     atom:   35    charge:    3.9763    magn:    1.1073    constr:    0.0000
     atom:   36    charge:    3.9561    magn:    1.1250    constr:    0.0000
     atom:   37    charge:    0.5503    magn:    0.3949    constr:    0.0000

     total cpu time spent up to now is      228.5 secs

     total energy              =   -3631.59764306 Ry
     Harris-Foulkes estimate   =   -3632.88858880 Ry
     estimated scf accuracy    <      12.62041016 Ry

     total magnetization       =    35.30 Bohr mag/cell
     absolute magnetization    =    35.31 Bohr mag/cell

     iteration #  2     ecut=    44.10 Ry     beta=0.10
     Davidson diagonalization with overlap
     ethr =  3.47E-03,  avg # of iterations =  1.1

     negative rho (up, down):  4.402E-04 2.627E-04
 
     Adding external electric field

     Computed dipole along edir(3) : 
        Dipole               -0.1153 Ry au,         -0.2931 Debye
        Dipole field         -0.0001 Ry au
 
        Potential amp.        0.0098 Ry
        Total length         34.5908 bohr
 
 
     Adding external electric field

     Computed dipole along edir(3) : 
        Dipole               -0.1153 Ry au,         -0.2931 Debye
        Dipole field         -0.0001 Ry au
 
        Potential amp.        0.0098 Ry
        Total length         34.5908 bohr
 
 
     Magnetic moment per site:
     atom:    1    charge:    3.9749    magn:    1.0901    constr:    0.0000
     atom:    2    charge:    3.9616    magn:    1.0948    constr:    0.0000
     atom:    3    charge:    3.9604    magn:    1.0966    constr:    0.0000
     atom:    4    charge:    3.9743    magn:    1.0906    constr:    0.0000
     atom:    5    charge:    3.9749    magn:    1.0901    constr:    0.0000
     atom:    6    charge:    3.9599    magn:    1.0950    constr:    0.0000
     atom:    7    charge:    3.9604    magn:    1.0966    constr:    0.0000
     atom:    8    charge:    3.9766    magn:    1.0649    constr:    0.0000
     atom:    9    charge:    3.9754    magn:    1.0890    constr:    0.0000
     atom:   10    charge:    3.9616    magn:    1.0948    constr:    0.0000
     atom:   11    charge:    3.9633    magn:    1.0934    constr:    0.0000
     atom:   12    charge:    3.9743    magn:    1.0906    constr:    0.0000
     atom:   13    charge:    3.9754    magn:    1.0890    constr:    0.0000
     atom:   14    charge:    3.9650    magn:    1.0916    constr:    0.0000
     atom:   15    charge:    3.9633    magn:    1.0934    constr:    0.0000
     atom:   16    charge:    3.9768    magn:    1.0876    constr:    0.0000
     atom:   17    charge:    3.9749    magn:    1.0901    constr:    0.0000
     atom:   18    charge:    3.9650    magn:    1.0917    constr:    0.0000
     atom:   19    charge:    3.9604    magn:    1.0966    constr:    0.0000
     atom:   20    charge:    3.9768    magn:    1.0876    constr:    0.0000
     atom:   21    charge:    3.9749    magn:    1.0901    constr:    0.0000
     atom:   22    charge:    3.9643    magn:    1.0926    constr:    0.0000
     atom:   23    charge:    3.9604    magn:    1.0966    constr:    0.0000
     atom:   24    charge:    3.9764    magn:    1.0880    constr:    0.0000
     atom:   25    charge:    3.9766    magn:    1.0878    constr:    0.0000
     atom:   26    charge:    3.9643    magn:    1.0926    constr:    0.0000
     atom:   27    charge:    3.9663    magn:    1.0904    constr:    0.0000
     atom:   28    charge:    3.9764    magn:    1.0880    constr:    0.0000
     atom:   29    charge:    3.9764    magn:    1.0882    constr:    0.0000
     atom:   30    charge:    3.9650    magn:    1.0916    constr:    0.0000
     atom:   31    charge:    3.9668    magn:    1.0905    constr:    0.0000
     atom:   32    charge:    3.9768    magn:    1.0876    constr:    0.0000
     atom:   33    charge:    3.9766    magn:    1.0878    constr:    0.0000
     atom:   34    charge:    3.9650    magn:    1.0917    constr:    0.0000
     atom:   35    charge:    3.9663    magn:    1.0904    constr:    0.0000
     atom:   36    charge:    3.9768    magn:    1.0877    constr:    0.0000
     atom:   37    charge:    0.5590    magn:    0.3934    constr:    0.0000

     total cpu time spent up to now is      337.7 secs

     total energy              =   -3631.84518260 Ry
     Harris-Foulkes estimate   =   -3632.84772933 Ry
     estimated scf accuracy    <      16.41890469 Ry

     total magnetization       =    39.42 Bohr mag/cell
     absolute magnetization    =    39.49 Bohr mag/cell

     iteration #  3     ecut=    44.10 Ry     beta=0.10
     Davidson diagonalization with overlap
     ethr =  3.47E-03,  avg # of iterations =  1.0

     negative rho (up, down):  4.361E-04 2.706E-04
 
     Adding external electric field

     Computed dipole along edir(3) : 
        Dipole                0.1650 Ry au,          0.4194 Debye
        Dipole field          0.0002 Ry au
 
        Potential amp.       -0.0141 Ry
        Total length         34.5908 bohr
 
 
     Adding external electric field

     Computed dipole along edir(3) : 
        Dipole                0.1650 Ry au,          0.4194 Debye
        Dipole field          0.0002 Ry au
 
        Potential amp.       -0.0141 Ry
        Total length         34.5908 bohr
 
 
     Magnetic moment per site:
     atom:    1    charge:    3.9912    magn:    1.0413    constr:    0.0000
     atom:    2    charge:    3.9710    magn:    1.0478    constr:    0.0000
     atom:    3    charge:    3.9669    magn:    1.0531    constr:    0.0000
     atom:    4    charge:    3.9836    magn:    1.0485    constr:    0.0000
     atom:    5    charge:    3.9912    magn:    1.0413    constr:    0.0000
     atom:    6    charge:    3.9714    magn:    1.0456    constr:    0.0000
     atom:    7    charge:    3.9669    magn:    1.0532    constr:    0.0000
     atom:    8    charge:    3.9804    magn:    1.0168    constr:    0.0000
     atom:    9    charge:    3.9896    magn:    1.0416    constr:    0.0000
     atom:   10    charge:    3.9710    magn:    1.0478    constr:    0.0000
     atom:   11    charge:    3.9663    magn:    1.0519    constr:    0.0000
     atom:   12    charge:    3.9836    magn:    1.0485    constr:    0.0000
     atom:   13    charge:    3.9896    magn:    1.0416    constr:    0.0000
     atom:   14    charge:    3.9637    magn:    1.0537    constr:    0.0000
     atom:   15    charge:    3.9663    magn:    1.0519    constr:    0.0000
     atom:   16    charge:    3.9751    magn:    1.0550    constr:    0.0000
     atom:   17    charge:    3.9912    magn:    1.0413    constr:    0.0000
     atom:   18    charge:    3.9637    magn:    1.0537    constr:    0.0000
     atom:   19    charge:    3.9669    magn:    1.0532    constr:    0.0000
     atom:   20    charge:    3.9751    magn:    1.0550    constr:    0.0000
     atom:   21    charge:    3.9912    magn:    1.0413    constr:    0.0000
     atom:   22    charge:    3.9646    magn:    1.0533    constr:    0.0000
     atom:   23    charge:    3.9669    magn:    1.0532    constr:    0.0000
     atom:   24    charge:    3.9762    magn:    1.0540    constr:    0.0000
     atom:   25    charge:    3.9798    magn:    1.0508    constr:    0.0000
     atom:   26    charge:    3.9646    magn:    1.0533    constr:    0.0000
     atom:   27    charge:    3.9589    magn:    1.0580    constr:    0.0000
     atom:   28    charge:    3.9762    magn:    1.0540    constr:    0.0000
     atom:   29    charge:    3.9792    magn:    1.0518    constr:    0.0000
     atom:   30    charge:    3.9637    magn:    1.0537    constr:    0.0000
     atom:   31    charge:    3.9580    magn:    1.0593    constr:    0.0000
     atom:   32    charge:    3.9751    magn:    1.0550    constr:    0.0000
     atom:   33    charge:    3.9798    magn:    1.0508    constr:    0.0000
     atom:   34    charge:    3.9637    magn:    1.0537    constr:    0.0000
     atom:   35    charge:    3.9589    magn:    1.0580    constr:    0.0000
     atom:   36    charge:    3.9751    magn:    1.0550    constr:    0.0000
     atom:   37    charge:    0.5695    magn:    0.3898    constr:    0.0000

     total cpu time spent up to now is      446.8 secs

     total energy              =   -3632.20998635 Ry
     Harris-Foulkes estimate   =   -3632.50309770 Ry
     estimated scf accuracy    <       7.28770655 Ry

     total magnetization       =    38.78 Bohr mag/cell
     absolute magnetization    =    38.86 Bohr mag/cell

     iteration #  4     ecut=    44.10 Ry     beta=0.10
     Davidson diagonalization with overlap
     ethr =  2.00E-03,  avg # of iterations =  1.0

     negative rho (up, down):  4.314E-04 2.812E-04
 
     Adding external electric field

     Computed dipole along edir(3) : 
        Dipole               -0.8025 Ry au,         -2.0398 Debye
        Dipole field         -0.0010 Ry au
 
        Potential amp.        0.0683 Ry
        Total length         34.5908 bohr
 
 
     Adding external electric field

     Computed dipole along edir(3) : 
        Dipole               -0.8025 Ry au,         -2.0398 Debye
        Dipole field         -0.0010 Ry au
 
        Potential amp.        0.0683 Ry
        Total length         34.5908 bohr
 
 
     Magnetic moment per site:
     atom:    1    charge:    3.9885    magn:    0.9997    constr:    0.0000
     atom:    2    charge:    3.9695    magn:    1.0001    constr:    0.0000
     atom:    3    charge:    3.9723    magn:    1.0005    constr:    0.0000
     atom:    4    charge:    3.9855    magn:    1.0038    constr:    0.0000
     atom:    5    charge:    3.9885    magn:    0.9997    constr:    0.0000
     atom:    6    charge:    3.9706    magn:    0.9962    constr:    0.0000
     atom:    7    charge:    3.9723    magn:    1.0005    constr:    0.0000
     atom:    8    charge:    3.9782    magn:    0.9598    constr:    0.0000
     atom:    9    charge:    3.9880    magn:    0.9985    constr:    0.0000
     atom:   10    charge:    3.9695    magn:    1.0001    constr:    0.0000
     atom:   11    charge:    3.9696    magn:    0.9999    constr:    0.0000
     atom:   12    charge:    3.9855    magn:    1.0038    constr:    0.0000
     atom:   13    charge:    3.9880    magn:    0.9985    constr:    0.0000
     atom:   14    charge:    3.9686    magn:    1.0003    constr:    0.0000
     atom:   15    charge:    3.9696    magn:    0.9999    constr:    0.0000
     atom:   16    charge:    3.9875    magn:    1.0005    constr:    0.0000
     atom:   17    charge:    3.9885    magn:    0.9997    constr:    0.0000
     atom:   18    charge:    3.9687    magn:    1.0003    constr:    0.0000
     atom:   19    charge:    3.9723    magn:    1.0005    constr:    0.0000
     atom:   20    charge:    3.9875    magn:    1.0005    constr:    0.0000
     atom:   21    charge:    3.9885    magn:    0.9997    constr:    0.0000
     atom:   22    charge:    3.9701    magn:    0.9994    constr:    0.0000
     atom:   23    charge:    3.9723    magn:    1.0005    constr:    0.0000
     atom:   24    charge:    3.9890    magn:    0.9990    constr:    0.0000
     atom:   25    charge:    3.9921    magn:    0.9957    constr:    0.0000
     atom:   26    charge:    3.9701    magn:    0.9994    constr:    0.0000
     atom:   27    charge:    3.9645    magn:    1.0046    constr:    0.0000
     atom:   28    charge:    3.9890    magn:    0.9989    constr:    0.0000
     atom:   29    charge:    3.9918    magn:    0.9968    constr:    0.0000
     atom:   30    charge:    3.9687    magn:    1.0003    constr:    0.0000
     atom:   31    charge:    3.9630    magn:    1.0066    constr:    0.0000
     atom:   32    charge:    3.9875    magn:    1.0005    constr:    0.0000
     atom:   33    charge:    3.9921    magn:    0.9957    constr:    0.0000
     atom:   34    charge:    3.9687    magn:    1.0003    constr:    0.0000
     atom:   35    charge:    3.9645    magn:    1.0045    constr:    0.0000
     atom:   36    charge:    3.9875    magn:    1.0005    constr:    0.0000
     atom:   37    charge:    0.5817    magn:    0.3844    constr:    0.0000

     total cpu time spent up to now is      555.8 secs

     total energy              =   -3632.15694104 Ry
     Harris-Foulkes estimate   =   -3632.98669238 Ry
     estimated scf accuracy    <      37.85992544 Ry

     total magnetization       =    39.49 Bohr mag/cell
     absolute magnetization    =    39.61 Bohr mag/cell

     iteration #  5     ecut=    44.10 Ry     beta=0.10
     Davidson diagonalization with overlap
     ethr =  2.00E-03,  avg # of iterations =  4.1

     negative rho (up, down):  4.291E-04 2.957E-04
 
     Adding external electric field

     Computed dipole along edir(3) : 
        Dipole               -0.2781 Ry au,         -0.7069 Debye
        Dipole field         -0.0003 Ry au
 
        Potential amp.        0.0237 Ry
        Total length         34.5908 bohr
 
 
     Adding external electric field

     Computed dipole along edir(3) : 
        Dipole               -0.2781 Ry au,         -0.7069 Debye
        Dipole field         -0.0003 Ry au
 
        Potential amp.        0.0237 Ry
        Total length         34.5908 bohr
 
 
     Magnetic moment per site:
     atom:    1    charge:    3.9928    magn:    0.9778    constr:    0.0000
     atom:    2    charge:    3.9701    magn:    0.9799    constr:    0.0000
     atom:    3    charge:    3.9689    magn:    0.9842    constr:    0.0000
     atom:    4    charge:    3.9797    magn:    0.9916    constr:    0.0000
     atom:    5    charge:    3.9928    magn:    0.9778    constr:    0.0000
     atom:    6    charge:    3.9701    magn:    0.9766    constr:    0.0000
     atom:    7    charge:    3.9689    magn:    0.9842    constr:    0.0000
     atom:    8    charge:    3.9687    magn:    0.9399    constr:    0.0000
     atom:    9    charge:    3.9933    magn:    0.9756    constr:    0.0000
     atom:   10    charge:    3.9701    magn:    0.9799    constr:    0.0000
     atom:   11    charge:    3.9686    magn:    0.9814    constr:    0.0000
     atom:   12    charge:    3.9797    magn:    0.9916    constr:    0.0000
     atom:   13    charge:    3.9933    magn:    0.9756    constr:    0.0000
     atom:   14    charge:    3.9715    magn:    0.9782    constr:    0.0000
     atom:   15    charge:    3.9686    magn:    0.9813    constr:    0.0000
     atom:   16    charge:    3.9893    magn:    0.9809    constr:    0.0000
     atom:   17    charge:    3.9928    magn:    0.9778    constr:    0.0000
     atom:   18    charge:    3.9715    magn:    0.9782    constr:    0.0000
     atom:   19    charge:    3.9689    magn:    0.9842    constr:    0.0000
     atom:   20    charge:    3.9893    magn:    0.9809    constr:    0.0000
     atom:   21    charge:    3.9928    magn:    0.9778    constr:    0.0000
     atom:   22    charge:    3.9719    magn:    0.9783    constr:    0.0000
     atom:   23    charge:    3.9689    magn:    0.9842    constr:    0.0000
     atom:   24    charge:    3.9881    magn:    0.9818    constr:    0.0000
     atom:   25    charge:    3.9973    magn:    0.9726    constr:    0.0000
     atom:   26    charge:    3.9719    magn:    0.9783    constr:    0.0000
     atom:   27    charge:    3.9676    magn:    0.9827    constr:    0.0000
     atom:   28    charge:    3.9881    magn:    0.9818    constr:    0.0000
     atom:   29    charge:    3.9974    magn:    0.9733    constr:    0.0000
     atom:   30    charge:    3.9715    magn:    0.9782    constr:    0.0000
     atom:   31    charge:    3.9673    magn:    0.9840    constr:    0.0000
     atom:   32    charge:    3.9893    magn:    0.9809    constr:    0.0000
     atom:   33    charge:    3.9973    magn:    0.9726    constr:    0.0000
     atom:   34    charge:    3.9715    magn:    0.9782    constr:    0.0000
     atom:   35    charge:    3.9676    magn:    0.9827    constr:    0.0000
     atom:   36    charge:    3.9893    magn:    0.9810    constr:    0.0000
     atom:   37    charge:    0.5834    magn:    0.3804    constr:    0.0000

     total cpu time spent up to now is      679.2 secs

     total energy              =   -3632.49420603 Ry
     Harris-Foulkes estimate   =   -3632.75350332 Ry
     estimated scf accuracy    <      11.24383290 Ry

     total magnetization       =    38.21 Bohr mag/cell
     absolute magnetization    =    38.41 Bohr mag/cell

     iteration #  6     ecut=    44.10 Ry     beta=0.10
     Davidson diagonalization with overlap
     ethr =  2.00E-03,  avg # of iterations =  2.0

     negative rho (up, down):  4.240E-04 2.935E-04
 
     Adding external electric field

     Computed dipole along edir(3) : 
        Dipole               -0.5845 Ry au,         -1.4856 Debye
        Dipole field         -0.0007 Ry au
 
        Potential amp.        0.0498 Ry
        Total length         34.5908 bohr
 
 
     Adding external electric field

     Computed dipole along edir(3) : 
        Dipole               -0.5845 Ry au,         -1.4856 Debye
        Dipole field         -0.0007 Ry au
 
        Potential amp.        0.0498 Ry
        Total length         34.5908 bohr
 
 
     Magnetic moment per site:
     atom:    1    charge:    3.9964    magn:    0.9374    constr:    0.0000
     atom:    2    charge:    3.9713    magn:    0.9395    constr:    0.0000
     atom:    3    charge:    3.9669    magn:    0.9472    constr:    0.0000
     atom:    4    charge:    3.9860    magn:    0.9509    constr:    0.0000
     atom:    5    charge:    3.9964    magn:    0.9374    constr:    0.0000
     atom:    6    charge:    3.9694    magn:    0.9369    constr:    0.0000
     atom:    7    charge:    3.9669    magn:    0.9472    constr:    0.0000
     atom:    8    charge:    3.9621    magn:    0.8920    constr:    0.0000
     atom:    9    charge:    3.9980    magn:    0.9336    constr:    0.0000
     atom:   10    charge:    3.9713    magn:    0.9395    constr:    0.0000
     atom:   11    charge:    3.9703    magn:    0.9407    constr:    0.0000
     atom:   12    charge:    3.9860    magn:    0.9509    constr:    0.0000
     atom:   13    charge:    3.9981    magn:    0.9336    constr:    0.0000
     atom:   14    charge:    3.9688    magn:    0.9411    constr:    0.0000
     atom:   15    charge:    3.9703    magn:    0.9407    constr:    0.0000
     atom:   16    charge:    3.9959    magn:    0.9380    constr:    0.0000
     atom:   17    charge:    3.9964    magn:    0.9374    constr:    0.0000
     atom:   18    charge:    3.9688    magn:    0.9411    constr:    0.0000
     atom:   19    charge:    3.9669    magn:    0.9472    constr:    0.0000
     atom:   20    charge:    3.9959    magn:    0.9380    constr:    0.0000
     atom:   21    charge:    3.9964    magn:    0.9374    constr:    0.0000
     atom:   22    charge:    3.9676    magn:    0.9427    constr:    0.0000
     atom:   23    charge:    3.9669    magn:    0.9472    constr:    0.0000
     atom:   24    charge:    3.9917    magn:    0.9417    constr:    0.0000
     atom:   25    charge:    3.9890    magn:    0.9419    constr:    0.0000
     atom:   26    charge:    3.9676    magn:    0.9426    constr:    0.0000
     atom:   27    charge:    3.9715    magn:    0.9409    constr:    0.0000
     atom:   28    charge:    3.9917    magn:    0.9417    constr:    0.0000
     atom:   29    charge:    3.9891    magn:    0.9426    constr:    0.0000
     atom:   30    charge:    3.9688    magn:    0.9411    constr:    0.0000
     atom:   31    charge:    3.9729    magn:    0.9412    constr:    0.0000
     atom:   32    charge:    3.9959    magn:    0.9380    constr:    0.0000
     atom:   33    charge:    3.9890    magn:    0.9419    constr:    0.0000
     atom:   34    charge:    3.9688    magn:    0.9411    constr:    0.0000
     atom:   35    charge:    3.9715    magn:    0.9409    constr:    0.0000
     atom:   36    charge:    3.9959    magn:    0.9380    constr:    0.0000
     atom:   37    charge:    0.5863    magn:    0.3720    constr:    0.0000

     total cpu time spent up to now is      792.1 secs

     total energy              =   -3632.74305860 Ry
     Harris-Foulkes estimate   =   -3632.78038179 Ry
     estimated scf accuracy    <       7.42732186 Ry

     total magnetization       =    38.98 Bohr mag/cell
     absolute magnetization    =    39.27 Bohr mag/cell

     iteration #  7     ecut=    44.10 Ry     beta=0.10
     Davidson diagonalization with overlap
     ethr =  2.00E-03,  avg # of iterations =  1.5

     negative rho (up, down):  4.169E-04 2.869E-04
 
     Adding external electric field

     Computed dipole along edir(3) : 
        Dipole               -0.4829 Ry au,         -1.2273 Debye
        Dipole field         -0.0006 Ry au
 
        Potential amp.        0.0411 Ry
        Total length         34.5908 bohr
 
 
     Adding external electric field

     Computed dipole along edir(3) : 
        Dipole               -0.4829 Ry au,         -1.2273 Debye
        Dipole field         -0.0006 Ry au
 
        Potential amp.        0.0411 Ry
        Total length         34.5908 bohr
 
 
     Magnetic moment per site:
     atom:    1    charge:    3.9955    magn:    0.8934    constr:    0.0000
     atom:    2    charge:    3.9672    magn:    0.8968    constr:    0.0000
     atom:    3    charge:    3.9676    magn:    0.9017    constr:    0.0000
     atom:    4    charge:    3.9951    magn:    0.9010    constr:    0.0000
     atom:    5    charge:    3.9955    magn:    0.8934    constr:    0.0000
     atom:    6    charge:    3.9685    magn:    0.8902    constr:    0.0000
     atom:    7    charge:    3.9676    magn:    0.9017    constr:    0.0000
     atom:    8    charge:    3.9640    magn:    0.8303    constr:    0.0000
     atom:    9    charge:    3.9943    magn:    0.8916    constr:    0.0000
     atom:   10    charge:    3.9672    magn:    0.8967    constr:    0.0000
     atom:   11    charge:    3.9670    magn:    0.8976    constr:    0.0000
     atom:   12    charge:    3.9951    magn:    0.9010    constr:    0.0000
     atom:   13    charge:    3.9943    magn:    0.8916    constr:    0.0000
     atom:   14    charge:    3.9672    magn:    0.8965    constr:    0.0000
     atom:   15    charge:    3.9670    magn:    0.8976    constr:    0.0000
     atom:   16    charge:    3.9928    magn:    0.8964    constr:    0.0000
     atom:   17    charge:    3.9955    magn:    0.8934    constr:    0.0000
     atom:   18    charge:    3.9672    magn:    0.8965    constr:    0.0000
     atom:   19    charge:    3.9676    magn:    0.9017    constr:    0.0000
     atom:   20    charge:    3.9928    magn:    0.8964    constr:    0.0000
     atom:   21    charge:    3.9955    magn:    0.8934    constr:    0.0000
     atom:   22    charge:    3.9681    magn:    0.8966    constr:    0.0000
     atom:   23    charge:    3.9676    magn:    0.9017    constr:    0.0000
     atom:   24    charge:    3.9945    magn:    0.8952    constr:    0.0000
     atom:   25    charge:    3.9954    magn:    0.8917    constr:    0.0000
     atom:   26    charge:    3.9681    magn:    0.8966    constr:    0.0000
     atom:   27    charge:    3.9705    magn:    0.8959    constr:    0.0000
     atom:   28    charge:    3.9945    magn:    0.8952    constr:    0.0000
     atom:   29    charge:    3.9944    magn:    0.8933    constr:    0.0000
     atom:   30    charge:    3.9672    magn:    0.8965    constr:    0.0000
     atom:   31    charge:    3.9692    magn:    0.8992    constr:    0.0000
     atom:   32    charge:    3.9928    magn:    0.8964    constr:    0.0000
     atom:   33    charge:    3.9954    magn:    0.8917    constr:    0.0000
     atom:   34    charge:    3.9672    magn:    0.8965    constr:    0.0000
     atom:   35    charge:    3.9705    magn:    0.8959    constr:    0.0000
     atom:   36    charge:    3.9928    magn:    0.8964    constr:    0.0000
     atom:   37    charge:    0.5887    magn:    0.3614    constr:    0.0000

     total cpu time spent up to now is      903.2 secs

     total energy              =   -3632.95953358 Ry
     Harris-Foulkes estimate   =   -3632.90568578 Ry
     estimated scf accuracy    <       3.40404070 Ry

     total magnetization       =    38.54 Bohr mag/cell
     absolute magnetization    =    38.98 Bohr mag/cell

     iteration #  8     ecut=    44.10 Ry     beta=0.10
     Davidson diagonalization with overlap
     ethr =  9.35E-04,  avg # of iterations =  3.7

     negative rho (up, down):  4.096E-04 2.832E-04
 
     Adding external electric field

     Computed dipole along edir(3) : 
        Dipole               -0.4389 Ry au,         -1.1155 Debye
        Dipole field         -0.0005 Ry au
 
        Potential amp.        0.0374 Ry
        Total length         34.5908 bohr
 
 
     Adding external electric field

     Computed dipole along edir(3) : 
        Dipole               -0.4389 Ry au,         -1.1155 Debye
        Dipole field         -0.0005 Ry au
 
        Potential amp.        0.0374 Ry
        Total length         34.5908 bohr
 
 
     Magnetic moment per site:
     atom:    1    charge:    3.9926    magn:    0.8580    constr:    0.0000
     atom:    2    charge:    3.9666    magn:    0.8594    constr:    0.0000
     atom:    3    charge:    3.9686    magn:    0.8637    constr:    0.0000
     atom:    4    charge:    3.9886    magn:    0.8703    constr:    0.0000
     atom:    5    charge:    3.9926    magn:    0.8580    constr:    0.0000
     atom:    6    charge:    3.9673    magn:    0.8519    constr:    0.0000
     atom:    7    charge:    3.9686    magn:    0.8637    constr:    0.0000
     atom:    8    charge:    3.9676    magn:    0.7761    constr:    0.0000
     atom:    9    charge:    3.9947    magn:    0.8527    constr:    0.0000
     atom:   10    charge:    3.9666    magn:    0.8594    constr:    0.0000
     atom:   11    charge:    3.9671    magn:    0.8599    constr:    0.0000
     atom:   12    charge:    3.9886    magn:    0.8702    constr:    0.0000
     atom:   13    charge:    3.9948    magn:    0.8527    constr:    0.0000
     atom:   14    charge:    3.9663    magn:    0.8595    constr:    0.0000
     atom:   15    charge:    3.9671    magn:    0.8599    constr:    0.0000
     atom:   16    charge:    3.9953    magn:    0.8565    constr:    0.0000
     atom:   17    charge:    3.9926    magn:    0.8580    constr:    0.0000
     atom:   18    charge:    3.9663    magn:    0.8595    constr:    0.0000
     atom:   19    charge:    3.9686    magn:    0.8637    constr:    0.0000
     atom:   20    charge:    3.9954    magn:    0.8565    constr:    0.0000
     atom:   21    charge:    3.9926    magn:    0.8580    constr:    0.0000
     atom:   22    charge:    3.9657    magn:    0.8611    constr:    0.0000
     atom:   23    charge:    3.9686    magn:    0.8636    constr:    0.0000
     atom:   24    charge:    3.9937    magn:    0.8583    constr:    0.0000
     atom:   25    charge:    3.9933    magn:    0.8556    constr:    0.0000
     atom:   26    charge:    3.9656    magn:    0.8611    constr:    0.0000
     atom:   27    charge:    3.9645    magn:    0.8628    constr:    0.0000
     atom:   28    charge:    3.9937    magn:    0.8583    constr:    0.0000
     atom:   29    charge:    3.9943    magn:    0.8553    constr:    0.0000
     atom:   30    charge:    3.9663    magn:    0.8595    constr:    0.0000
     atom:   31    charge:    3.9661    magn:    0.8643    constr:    0.0000
     atom:   32    charge:    3.9953    magn:    0.8565    constr:    0.0000
     atom:   33    charge:    3.9933    magn:    0.8556    constr:    0.0000
     atom:   34    charge:    3.9663    magn:    0.8595    constr:    0.0000
     atom:   35    charge:    3.9645    magn:    0.8628    constr:    0.0000
     atom:   36    charge:    3.9953    magn:    0.8565    constr:    0.0000
     atom:   37    charge:    0.5890    magn:    0.3510    constr:    0.0000

     total cpu time spent up to now is     1024.0 secs

     total energy              =   -3633.11348123 Ry
     Harris-Foulkes estimate   =   -3633.02598676 Ry
     estimated scf accuracy    <       1.24671435 Ry

     total magnetization       =    37.68 Bohr mag/cell
     absolute magnetization    =    38.32 Bohr mag/cell

     iteration #  9     ecut=    44.10 Ry     beta=0.10
     Davidson diagonalization with overlap
     ethr =  3.43E-04,  avg # of iterations =  9.7

     negative rho (up, down):  4.044E-04 3.093E-04
 
     Adding external electric field

     Computed dipole along edir(3) : 
        Dipole               -0.2649 Ry au,         -0.6732 Debye
        Dipole field         -0.0003 Ry au
 
        Potential amp.        0.0226 Ry
        Total length         34.5908 bohr
 
 
     Adding external electric field

     Computed dipole along edir(3) : 
        Dipole               -0.2649 Ry au,         -0.6732 Debye
        Dipole field         -0.0003 Ry au
 
        Potential amp.        0.0226 Ry
        Total length         34.5908 bohr
 
 
     Magnetic moment per site:
     atom:    1    charge:    3.9839    magn:    0.7001    constr:    0.0000
     atom:    2    charge:    3.9660    magn:    0.6959    constr:    0.0000
     atom:    3    charge:    3.9638    magn:    0.7052    constr:    0.0000
     atom:    4    charge:    3.9893    magn:    0.7099    constr:    0.0000
     atom:    5    charge:    3.9839    magn:    0.7001    constr:    0.0000
     atom:    6    charge:    3.9605    magn:    0.6861    constr:    0.0000
     atom:    7    charge:    3.9638    magn:    0.7052    constr:    0.0000
     atom:    8    charge:    3.9641    magn:    0.5393    constr:    0.0000
     atom:    9    charge:    3.9823    magn:    0.6951    constr:    0.0000
     atom:   10    charge:    3.9660    magn:    0.6959    constr:    0.0000
     atom:   11    charge:    3.9662    magn:    0.6973    constr:    0.0000
     atom:   12    charge:    3.9893    magn:    0.7099    constr:    0.0000
     atom:   13    charge:    3.9822    magn:    0.6952    constr:    0.0000
     atom:   14    charge:    3.9622    magn:    0.6997    constr:    0.0000
     atom:   15    charge:    3.9661    magn:    0.6973    constr:    0.0000
     atom:   16    charge:    3.9885    magn:    0.6960    constr:    0.0000
     atom:   17    charge:    3.9838    magn:    0.7002    constr:    0.0000
     atom:   18    charge:    3.9622    magn:    0.6997    constr:    0.0000
     atom:   19    charge:    3.9637    magn:    0.7053    constr:    0.0000
     atom:   20    charge:    3.9885    magn:    0.6960    constr:    0.0000
     atom:   21    charge:    3.9838    magn:    0.7002    constr:    0.0000
     atom:   22    charge:    3.9662    magn:    0.6992    constr:    0.0000
     atom:   23    charge:    3.9637    magn:    0.7053    constr:    0.0000
     atom:   24    charge:    3.9888    magn:    0.6969    constr:    0.0000
     atom:   25    charge:    3.9869    magn:    0.6951    constr:    0.0000
     atom:   26    charge:    3.9663    magn:    0.6991    constr:    0.0000
     atom:   27    charge:    3.9642    magn:    0.6998    constr:    0.0000
     atom:   28    charge:    3.9890    magn:    0.6968    constr:    0.0000
     atom:   29    charge:    3.9783    magn:    0.7016    constr:    0.0000
     atom:   30    charge:    3.9623    magn:    0.6996    constr:    0.0000
     atom:   31    charge:    3.9609    magn:    0.7079    constr:    0.0000
     atom:   32    charge:    3.9886    magn:    0.6959    constr:    0.0000
     atom:   33    charge:    3.9869    magn:    0.6951    constr:    0.0000
     atom:   34    charge:    3.9623    magn:    0.6996    constr:    0.0000
     atom:   35    charge:    3.9642    magn:    0.6998    constr:    0.0000
     atom:   36    charge:    3.9886    magn:    0.6959    constr:    0.0000
     atom:   37    charge:    0.5857    magn:    0.2993    constr:    0.0000

     total cpu time spent up to now is     1176.4 secs

     total energy              =   -3633.49718819 Ry
     Harris-Foulkes estimate   =   -3633.14189353 Ry
     estimated scf accuracy    <       0.91568112 Ry

     total magnetization       =    36.68 Bohr mag/cell
     absolute magnetization    =    37.52 Bohr mag/cell

     iteration # 10     ecut=    44.10 Ry     beta=0.10
     Davidson diagonalization with overlap
     ethr =  2.52E-04,  avg # of iterations =  3.6

     negative rho (up, down):  4.116E-04 3.498E-04
 
     Adding external electric field

     Computed dipole along edir(3) : 
        Dipole               -0.2165 Ry au,         -0.5504 Debye
        Dipole field         -0.0003 Ry au
 
        Potential amp.        0.0184 Ry
        Total length         34.5908 bohr
 
 
     Adding external electric field

     Computed dipole along edir(3) : 
        Dipole               -0.2165 Ry au,         -0.5504 Debye
        Dipole field         -0.0003 Ry au
 
        Potential amp.        0.0184 Ry
        Total length         34.5908 bohr
 
 
     Magnetic moment per site:
     atom:    1    charge:    3.9809    magn:    0.6260    constr:    0.0000
     atom:    2    charge:    3.9630    magn:    0.6215    constr:    0.0000
     atom:    3    charge:    3.9659    magn:    0.6278    constr:    0.0000
     atom:    4    charge:    3.9909    magn:    0.6334    constr:    0.0000
     atom:    5    charge:    3.9809    magn:    0.6260    constr:    0.0000
     atom:    6    charge:    3.9631    magn:    0.6045    constr:    0.0000
     atom:    7    charge:    3.9659    magn:    0.6278    constr:    0.0000
     atom:    8    charge:    3.9568    magn:    0.4259    constr:    0.0000
     atom:    9    charge:    3.9806    magn:    0.6190    constr:    0.0000
     atom:   10    charge:    3.9630    magn:    0.6215    constr:    0.0000
     atom:   11    charge:    3.9640    magn:    0.6226    constr:    0.0000
     atom:   12    charge:    3.9909    magn:    0.6334    constr:    0.0000
     atom:   13    charge:    3.9808    magn:    0.6188    constr:    0.0000
     atom:   14    charge:    3.9636    magn:    0.6226    constr:    0.0000
     atom:   15    charge:    3.9642    magn:    0.6224    constr:    0.0000
     atom:   16    charge:    3.9857    magn:    0.6206    constr:    0.0000
     atom:   17    charge:    3.9812    magn:    0.6258    constr:    0.0000
     atom:   18    charge:    3.9636    magn:    0.6226    constr:    0.0000
     atom:   19    charge:    3.9661    magn:    0.6276    constr:    0.0000
     atom:   20    charge:    3.9857    magn:    0.6206    constr:    0.0000
     atom:   21    charge:    3.9812    magn:    0.6258    constr:    0.0000
     atom:   22    charge:    3.9629    magn:    0.6263    constr:    0.0000
     atom:   23    charge:    3.9661    magn:    0.6276    constr:    0.0000
     atom:   24    charge:    3.9879    magn:    0.6206    constr:    0.0000
     atom:   25    charge:    3.9799    magn:    0.6240    constr:    0.0000
     atom:   26    charge:    3.9626    magn:    0.6265    constr:    0.0000
     atom:   27    charge:    3.9635    magn:    0.6243    constr:    0.0000
     atom:   28    charge:    3.9876    magn:    0.6209    constr:    0.0000
     atom:   29    charge:    3.9840    magn:    0.6199    constr:    0.0000
     atom:   30    charge:    3.9634    magn:    0.6228    constr:    0.0000
     atom:   31    charge:    3.9640    magn:    0.6307    constr:    0.0000
     atom:   32    charge:    3.9855    magn:    0.6208    constr:    0.0000
     atom:   33    charge:    3.9799    magn:    0.6239    constr:    0.0000
     atom:   34    charge:    3.9634    magn:    0.6228    constr:    0.0000
     atom:   35    charge:    3.9635    magn:    0.6243    constr:    0.0000
     atom:   36    charge:    3.9855    magn:    0.6209    constr:    0.0000
     atom:   37    charge:    0.5830    magn:    0.2728    constr:    0.0000

     total cpu time spent up to now is     1296.2 secs

     total energy              =   -3633.64234877 Ry
     Harris-Foulkes estimate   =   -3633.55736528 Ry
     estimated scf accuracy    <       0.94853303 Ry

     total magnetization       =    32.24 Bohr mag/cell
     absolute magnetization    =    34.18 Bohr mag/cell

     iteration # 11     ecut=    44.10 Ry     beta=0.10
     Davidson diagonalization with overlap
     ethr =  2.52E-04,  avg # of iterations =  1.1

     negative rho (up, down):  4.131E-04 3.690E-04
 
     Adding external electric field

     Computed dipole along edir(3) : 
        Dipole               -0.2553 Ry au,         -0.6490 Debye
        Dipole field         -0.0003 Ry au
 
        Potential amp.        0.0217 Ry
        Total length         34.5908 bohr
 
 
     Adding external electric field

     Computed dipole along edir(3) : 
        Dipole               -0.2553 Ry au,         -0.6490 Debye
        Dipole field         -0.0003 Ry au
 
        Potential amp.        0.0217 Ry
        Total length         34.5908 bohr
 
 
     Magnetic moment per site:
     atom:    1    charge:    3.9825    magn:    0.5778    constr:    0.0000
     atom:    2    charge:    3.9639    magn:    0.5735    constr:    0.0000
     atom:    3    charge:    3.9699    magn:    0.5771    constr:    0.0000
     atom:    4    charge:    3.9890    magn:    0.5870    constr:    0.0000
     atom:    5    charge:    3.9825    magn:    0.5778    constr:    0.0000
     atom:    6    charge:    3.9676    magn:    0.5514    constr:    0.0000
     atom:    7    charge:    3.9699    magn:    0.5771    constr:    0.0000
     atom:    8    charge:    3.9507    magn:    0.3500    constr:    0.0000
     atom:    9    charge:    3.9836    magn:    0.5696    constr:    0.0000
     atom:   10    charge:    3.9639    magn:    0.5735    constr:    0.0000
     atom:   11    charge:    3.9649    magn:    0.5747    constr:    0.0000
     atom:   12    charge:    3.9890    magn:    0.5870    constr:    0.0000
     atom:   13    charge:    3.9825    magn:    0.5705    constr:    0.0000
     atom:   14    charge:    3.9638    magn:    0.5753    constr:    0.0000
     atom:   15    charge:    3.9640    magn:    0.5754    constr:    0.0000
     atom:   16    charge:    3.9851    magn:    0.5731    constr:    0.0000
     atom:   17    charge:    3.9813    magn:    0.5787    constr:    0.0000
     atom:   18    charge:    3.9637    magn:    0.5753    constr:    0.0000
     atom:   19    charge:    3.9691    magn:    0.5778    constr:    0.0000
     atom:   20    charge:    3.9851    magn:    0.5731    constr:    0.0000
     atom:   21    charge:    3.9814    magn:    0.5787    constr:    0.0000
     atom:   22    charge:    3.9645    magn:    0.5782    constr:    0.0000
     atom:   23    charge:    3.9691    magn:    0.5777    constr:    0.0000
     atom:   24    charge:    3.9875    magn:    0.5730    constr:    0.0000
     atom:   25    charge:    3.9831    magn:    0.5746    constr:    0.0000
     atom:   26    charge:    3.9654    magn:    0.5775    constr:    0.0000
     atom:   27    charge:    3.9658    magn:    0.5752    constr:    0.0000
     atom:   28    charge:    3.9888    magn:    0.5719    constr:    0.0000
     atom:   29    charge:    3.9798    magn:    0.5762    constr:    0.0000
     atom:   30    charge:    3.9646    magn:    0.5746    constr:    0.0000
     atom:   31    charge:    3.9652    magn:    0.5831    constr:    0.0000
     atom:   32    charge:    3.9862    magn:    0.5721    constr:    0.0000
     atom:   33    charge:    3.9830    magn:    0.5746    constr:    0.0000
     atom:   34    charge:    3.9646    magn:    0.5746    constr:    0.0000
     atom:   35    charge:    3.9658    magn:    0.5752    constr:    0.0000
     atom:   36    charge:    3.9862    magn:    0.5722    constr:    0.0000
     atom:   37    charge:    0.5802    magn:    0.2532    constr:    0.0000

     total cpu time spent up to now is     1405.4 secs

     total energy              =   -3633.70952017 Ry
     Harris-Foulkes estimate   =   -3633.67202441 Ry
     estimated scf accuracy    <       0.42769342 Ry

     total magnetization       =    30.11 Bohr mag/cell
     absolute magnetization    =    32.72 Bohr mag/cell

     iteration # 12     ecut=    44.10 Ry     beta=0.10
     Davidson diagonalization with overlap
     ethr =  1.17E-04,  avg # of iterations =  7.7

     negative rho (up, down):  4.143E-04 3.854E-04
 
     Adding external electric field

     Computed dipole along edir(3) : 
        Dipole               -0.2778 Ry au,         -0.7060 Debye
        Dipole field         -0.0003 Ry au
 
        Potential amp.        0.0237 Ry
        Total length         34.5908 bohr
 
 
     Adding external electric field

     Computed dipole along edir(3) : 
        Dipole               -0.2778 Ry au,         -0.7060 Debye
        Dipole field         -0.0003 Ry au
 
        Potential amp.        0.0237 Ry
        Total length         34.5908 bohr
 
 
     Magnetic moment per site:
     atom:    1    charge:    3.9802    magn:    0.5371    constr:    0.0000
     atom:    2    charge:    3.9666    magn:    0.5287    constr:    0.0000
     atom:    3    charge:    3.9693    magn:    0.5342    constr:    0.0000
     atom:    4    charge:    3.9888    magn:    0.5435    constr:    0.0000
     atom:    5    charge:    3.9802    magn:    0.5371    constr:    0.0000
     atom:    6    charge:    3.9680    magn:    0.5057    constr:    0.0000
     atom:    7    charge:    3.9693    magn:    0.5342    constr:    0.0000
     atom:    8    charge:    3.9490    magn:    0.2794    constr:    0.0000
     atom:    9    charge:    3.9825    magn:    0.5276    constr:    0.0000
     atom:   10    charge:    3.9666    magn:    0.5287    constr:    0.0000
     atom:   11    charge:    3.9665    magn:    0.5309    constr:    0.0000
     atom:   12    charge:    3.9888    magn:    0.5435    constr:    0.0000
     atom:   13    charge:    3.9844    magn:    0.5260    constr:    0.0000
     atom:   14    charge:    3.9666    magn:    0.5304    constr:    0.0000
     atom:   15    charge:    3.9677    magn:    0.5300    constr:    0.0000
     atom:   16    charge:    3.9859    magn:    0.5286    constr:    0.0000
     atom:   17    charge:    3.9820    magn:    0.5355    constr:    0.0000
     atom:   18    charge:    3.9666    magn:    0.5304    constr:    0.0000
     atom:   19    charge:    3.9708    magn:    0.5330    constr:    0.0000
     atom:   20    charge:    3.9859    magn:    0.5286    constr:    0.0000
     atom:   21    charge:    3.9820    magn:    0.5355    constr:    0.0000
     atom:   22    charge:    3.9672    magn:    0.5338    constr:    0.0000
     atom:   23    charge:    3.9708    magn:    0.5330    constr:    0.0000
     atom:   24    charge:    3.9860    magn:    0.5305    constr:    0.0000
     atom:   25    charge:    3.9836    magn:    0.5314    constr:    0.0000
     atom:   26    charge:    3.9658    magn:    0.5349    constr:    0.0000
     atom:   27    charge:    3.9669    magn:    0.5314    constr:    0.0000
     atom:   28    charge:    3.9838    magn:    0.5323    constr:    0.0000
     atom:   29    charge:    3.9799    magn:    0.5333    constr:    0.0000
     atom:   30    charge:    3.9654    magn:    0.5313    constr:    0.0000
     atom:   31    charge:    3.9673    magn:    0.5391    constr:    0.0000
     atom:   32    charge:    3.9842    magn:    0.5301    constr:    0.0000
     atom:   33    charge:    3.9835    magn:    0.5314    constr:    0.0000
     atom:   34    charge:    3.9654    magn:    0.5313    constr:    0.0000
     atom:   35    charge:    3.9669    magn:    0.5314    constr:    0.0000
     atom:   36    charge:    3.9842    magn:    0.5301    constr:    0.0000
     atom:   37    charge:    0.5767    magn:    0.2344    constr:    0.0000

     total cpu time spent up to now is     1547.3 secs

     total energy              =   -3633.74092009 Ry
     Harris-Foulkes estimate   =   -3633.73002441 Ry
     estimated scf accuracy    <       0.60862631 Ry

     total magnetization       =    28.96 Bohr mag/cell
     absolute magnetization    =    31.99 Bohr mag/cell

     iteration # 13     ecut=    44.10 Ry     beta=0.10
     Davidson diagonalization with overlap
     ethr =  1.17E-04,  avg # of iterations =  1.1

     negative rho (up, down):  4.105E-04 3.857E-04
 
     Adding external electric field

     Computed dipole along edir(3) : 
        Dipole               -0.2971 Ry au,         -0.7552 Debye
        Dipole field         -0.0004 Ry au
 
        Potential amp.        0.0253 Ry
        Total length         34.5908 bohr
 
 
     Adding external electric field

     Computed dipole along edir(3) : 
        Dipole               -0.2971 Ry au,         -0.7552 Debye
        Dipole field         -0.0004 Ry au
 
        Potential amp.        0.0253 Ry
        Total length         34.5908 bohr
 
 
     Magnetic moment per site:
     atom:    1    charge:    3.9813    magn:    0.5092    constr:    0.0000
     atom:    2    charge:    3.9684    magn:    0.5002    constr:    0.0000
     atom:    3    charge:    3.9695    magn:    0.5064    constr:    0.0000
     atom:    4    charge:    3.9884    magn:    0.5160    constr:    0.0000
     atom:    5    charge:    3.9813    magn:    0.5092    constr:    0.0000
     atom:    6    charge:    3.9673    magn:    0.4773    constr:    0.0000
     atom:    7    charge:    3.9695    magn:    0.5064    constr:    0.0000
     atom:    8    charge:    3.9502    magn:    0.2337    constr:    0.0000
     atom:    9    charge:    3.9826    magn:    0.5003    constr:    0.0000
     atom:   10    charge:    3.9684    magn:    0.5002    constr:    0.0000
     atom:   11    charge:    3.9688    magn:    0.5022    constr:    0.0000
     atom:   12    charge:    3.9884    magn:    0.5160    constr:    0.0000
     atom:   13    charge:    3.9817    magn:    0.5010    constr:    0.0000
     atom:   14    charge:    3.9674    magn:    0.5028    constr:    0.0000
     atom:   15    charge:    3.9682    magn:    0.5027    constr:    0.0000
     atom:   16    charge:    3.9834    magn:    0.5029    constr:    0.0000
     atom:   17    charge:    3.9808    magn:    0.5096    constr:    0.0000
     atom:   18    charge:    3.9674    magn:    0.5028    constr:    0.0000
     atom:   19    charge:    3.9690    magn:    0.5067    constr:    0.0000
     atom:   20    charge:    3.9834    magn:    0.5029    constr:    0.0000
     atom:   21    charge:    3.9808    magn:    0.5096    constr:    0.0000
     atom:   22    charge:    3.9674    magn:    0.5068    constr:    0.0000
     atom:   23    charge:    3.9690    magn:    0.5067    constr:    0.0000
     atom:   24    charge:    3.9833    magn:    0.5051    constr:    0.0000
     atom:   25    charge:    3.9819    magn:    0.5055    constr:    0.0000
     atom:   26    charge:    3.9679    magn:    0.5065    constr:    0.0000
     atom:   27    charge:    3.9674    magn:    0.5039    constr:    0.0000
     atom:   28    charge:    3.9836    magn:    0.5049    constr:    0.0000
     atom:   29    charge:    3.9824    magn:    0.5041    constr:    0.0000
     atom:   30    charge:    3.9678    magn:    0.5024    constr:    0.0000
     atom:   31    charge:    3.9683    magn:    0.5114    constr:    0.0000
     atom:   32    charge:    3.9843    magn:    0.5022    constr:    0.0000
     atom:   33    charge:    3.9819    magn:    0.5055    constr:    0.0000
     atom:   34    charge:    3.9678    magn:    0.5024    constr:    0.0000
     atom:   35    charge:    3.9674    magn:    0.5039    constr:    0.0000
     atom:   36    charge:    3.9843    magn:    0.5022    constr:    0.0000
     atom:   37    charge:    0.5745    magn:    0.2220    constr:    0.0000

     total cpu time spent up to now is     1656.8 secs

     total energy              =   -3633.75762968 Ry
     Harris-Foulkes estimate   =   -3633.76763182 Ry
     estimated scf accuracy    <       0.84774660 Ry

     total magnetization       =    27.72 Bohr mag/cell
     absolute magnetization    =    31.15 Bohr mag/cell

     iteration # 14     ecut=    44.10 Ry     beta=0.10
     Davidson diagonalization with overlap
     ethr =  1.17E-04,  avg # of iterations =  1.0

     negative rho (up, down):  4.056E-04 3.824E-04
 
     Adding external electric field

     Computed dipole along edir(3) : 
        Dipole               -0.3297 Ry au,         -0.8380 Debye
        Dipole field         -0.0004 Ry au
 
        Potential amp.        0.0281 Ry
        Total length         34.5908 bohr
 
 
     Adding external electric field

     Computed dipole along edir(3) : 
        Dipole               -0.3297 Ry au,         -0.8380 Debye
        Dipole field         -0.0004 Ry au
 
        Potential amp.        0.0281 Ry
        Total length         34.5908 bohr
 
 
     Magnetic moment per site:
     atom:    1    charge:    3.9828    magn:    0.4855    constr:    0.0000
     atom:    2    charge:    3.9695    magn:    0.4759    constr:    0.0000
     atom:    3    charge:    3.9703    magn:    0.4816    constr:    0.0000
     atom:    4    charge:    3.9858    magn:    0.4938    constr:    0.0000
     atom:    5    charge:    3.9828    magn:    0.4855    constr:    0.0000
     atom:    6    charge:    3.9696    magn:    0.4507    constr:    0.0000
     atom:    7    charge:    3.9703    magn:    0.4816    constr:    0.0000
     atom:    8    charge:    3.9514    magn:    0.1909    constr:    0.0000
     atom:    9    charge:    3.9810    magn:    0.4791    constr:    0.0000
     atom:   10    charge:    3.9695    magn:    0.4759    constr:    0.0000
     atom:   11    charge:    3.9682    magn:    0.4796    constr:    0.0000
     atom:   12    charge:    3.9858    magn:    0.4938    constr:    0.0000
     atom:   13    charge:    3.9814    magn:    0.4789    constr:    0.0000
     atom:   14    charge:    3.9697    magn:    0.4780    constr:    0.0000
     atom:   15    charge:    3.9688    magn:    0.4793    constr:    0.0000
     atom:   16    charge:    3.9827    magn:    0.4803    constr:    0.0000
     atom:   17    charge:    3.9829    magn:    0.4853    constr:    0.0000
     atom:   18    charge:    3.9697    magn:    0.4780    constr:    0.0000
     atom:   19    charge:    3.9703    magn:    0.4816    constr:    0.0000
     atom:   20    charge:    3.9827    magn:    0.4803    constr:    0.0000
     atom:   21    charge:    3.9829    magn:    0.4853    constr:    0.0000
     atom:   22    charge:    3.9702    magn:    0.4815    constr:    0.0000
     atom:   23    charge:    3.9703    magn:    0.4816    constr:    0.0000
     atom:   24    charge:    3.9851    magn:    0.4804    constr:    0.0000
     atom:   25    charge:    3.9809    magn:    0.4835    constr:    0.0000
     atom:   26    charge:    3.9702    magn:    0.4816    constr:    0.0000
     atom:   27    charge:    3.9695    magn:    0.4789    constr:    0.0000
     atom:   28    charge:    3.9853    magn:    0.4804    constr:    0.0000
     atom:   29    charge:    3.9832    magn:    0.4809    constr:    0.0000
     atom:   30    charge:    3.9693    magn:    0.4782    constr:    0.0000
     atom:   31    charge:    3.9691    magn:    0.4873    constr:    0.0000
     atom:   32    charge:    3.9822    magn:    0.4806    constr:    0.0000
     atom:   33    charge:    3.9809    magn:    0.4835    constr:    0.0000
     atom:   34    charge:    3.9693    magn:    0.4782    constr:    0.0000
     atom:   35    charge:    3.9695    magn:    0.4789    constr:    0.0000
     atom:   36    charge:    3.9822    magn:    0.4806    constr:    0.0000
     atom:   37    charge:    0.5715    magn:    0.2087    constr:    0.0000

     total cpu time spent up to now is     1765.8 secs

     total energy              =   -3633.77359064 Ry
     Harris-Foulkes estimate   =   -3633.77561837 Ry
     estimated scf accuracy    <       0.24185765 Ry

     total magnetization       =    26.73 Bohr mag/cell
     absolute magnetization    =    30.41 Bohr mag/cell

     iteration # 15     ecut=    44.10 Ry     beta=0.10
     Davidson diagonalization with overlap
     ethr =  6.64E-05,  avg # of iterations =  2.2

     negative rho (up, down):  4.109E-04 4.054E-04
 
     Adding external electric field

     Computed dipole along edir(3) : 
        Dipole               -0.3960 Ry au,         -1.0064 Debye
        Dipole field         -0.0005 Ry au
 
        Potential amp.        0.0337 Ry
        Total length         34.5908 bohr
 
 
     Adding external electric field

     Computed dipole along edir(3) : 
        Dipole               -0.3960 Ry au,         -1.0064 Debye
        Dipole field         -0.0005 Ry au
 
        Potential amp.        0.0337 Ry
        Total length         34.5908 bohr
 
 
     Magnetic moment per site:
     atom:    1    charge:    3.9845    magn:    0.4398    constr:    0.0000
     atom:    2    charge:    3.9719    magn:    0.4267    constr:    0.0000
     atom:    3    charge:    3.9726    magn:    0.4309    constr:    0.0000
     atom:    4    charge:    3.9868    magn:    0.4452    constr:    0.0000
     atom:    5    charge:    3.9845    magn:    0.4399    constr:    0.0000
     atom:    6    charge:    3.9733    magn:    0.3978    constr:    0.0000
     atom:    7    charge:    3.9726    magn:    0.4309    constr:    0.0000
     atom:    8    charge:    3.9507    magn:    0.1040    constr:    0.0000
     atom:    9    charge:    3.9855    magn:    0.4323    constr:    0.0000
     atom:   10    charge:    3.9719    magn:    0.4267    constr:    0.0000
     atom:   11    charge:    3.9710    magn:    0.4315    constr:    0.0000
     atom:   12    charge:    3.9868    magn:    0.4452    constr:    0.0000
     atom:   13    charge:    3.9858    magn:    0.4320    constr:    0.0000
     atom:   14    charge:    3.9731    magn:    0.4284    constr:    0.0000
     atom:   15    charge:    3.9713    magn:    0.4314    constr:    0.0000
     atom:   16    charge:    3.9832    magn:    0.4349    constr:    0.0000
     atom:   17    charge:    3.9842    magn:    0.4400    constr:    0.0000
     atom:   18    charge:    3.9731    magn:    0.4284    constr:    0.0000
     atom:   19    charge:    3.9727    magn:    0.4309    constr:    0.0000
     atom:   20    charge:    3.9832    magn:    0.4349    constr:    0.0000
     atom:   21    charge:    3.9842    magn:    0.4400    constr:    0.0000
     atom:   22    charge:    3.9724    magn:    0.4328    constr:    0.0000
     atom:   23    charge:    3.9727    magn:    0.4309    constr:    0.0000
     atom:   24    charge:    3.9841    magn:    0.4361    constr:    0.0000
     atom:   25    charge:    3.9853    magn:    0.4358    constr:    0.0000
     atom:   26    charge:    3.9722    magn:    0.4329    constr:    0.0000
     atom:   27    charge:    3.9724    magn:    0.4296    constr:    0.0000
     atom:   28    charge:    3.9844    magn:    0.4359    constr:    0.0000
     atom:   29    charge:    3.9850    magn:    0.4350    constr:    0.0000
     atom:   30    charge:    3.9732    magn:    0.4284    constr:    0.0000
     atom:   31    charge:    3.9726    magn:    0.4371    constr:    0.0000
     atom:   32    charge:    3.9831    magn:    0.4350    constr:    0.0000
     atom:   33    charge:    3.9853    magn:    0.4358    constr:    0.0000
     atom:   34    charge:    3.9732    magn:    0.4284    constr:    0.0000
     atom:   35    charge:    3.9724    magn:    0.4296    constr:    0.0000
     atom:   36    charge:    3.9831    magn:    0.4350    constr:    0.0000
     atom:   37    charge:    0.5661    magn:    0.1804    constr:    0.0000

     total cpu time spent up to now is     1880.0 secs

     total energy              =   -3633.77949627 Ry
     Harris-Foulkes estimate   =   -3633.78306402 Ry
     estimated scf accuracy    <       0.16648489 Ry

     total magnetization       =    25.94 Bohr mag/cell
     absolute magnetization    =    29.82 Bohr mag/cell

     iteration # 16     ecut=    44.10 Ry     beta=0.10
     Davidson diagonalization with overlap
     ethr =  4.57E-05,  avg # of iterations =  3.5

     negative rho (up, down):  4.009E-04 3.857E-04
 
     Adding external electric field

     Computed dipole along edir(3) : 
        Dipole               -0.4220 Ry au,         -1.0725 Debye
        Dipole field         -0.0005 Ry au
 
        Potential amp.        0.0359 Ry
        Total length         34.5908 bohr
 
 
     Adding external electric field

     Computed dipole along edir(3) : 
        Dipole               -0.4220 Ry au,         -1.0725 Debye
        Dipole field         -0.0005 Ry au
 
        Potential amp.        0.0359 Ry
        Total length         34.5908 bohr
 
 
     Magnetic moment per site:
     atom:    1    charge:    3.9844    magn:    0.4357    constr:    0.0000
     atom:    2    charge:    3.9729    magn:    0.4208    constr:    0.0000
     atom:    3    charge:    3.9736    magn:    0.4244    constr:    0.0000
     atom:    4    charge:    3.9865    magn:    0.4404    constr:    0.0000
     atom:    5    charge:    3.9844    magn:    0.4357    constr:    0.0000
     atom:    6    charge:    3.9737    magn:    0.3917    constr:    0.0000
     atom:    7    charge:    3.9736    magn:    0.4244    constr:    0.0000
     atom:    8    charge:    3.9505    magn:    0.0926    constr:    0.0000
     atom:    9    charge:    3.9845    magn:    0.4292    constr:    0.0000
     atom:   10    charge:    3.9729    magn:    0.4208    constr:    0.0000
     atom:   11    charge:    3.9723    magn:    0.4259    constr:    0.0000
     atom:   12    charge:    3.9865    magn:    0.4404    constr:    0.0000
     atom:   13    charge:    3.9843    magn:    0.4293    constr:    0.0000
     atom:   14    charge:    3.9735    magn:    0.4229    constr:    0.0000
     atom:   15    charge:    3.9722    magn:    0.4260    constr:    0.0000
     atom:   16    charge:    3.9836    magn:    0.4308    constr:    0.0000
     atom:   17    charge:    3.9845    magn:    0.4356    constr:    0.0000
     atom:   18    charge:    3.9735    magn:    0.4229    constr:    0.0000
     atom:   19    charge:    3.9737    magn:    0.4244    constr:    0.0000
     atom:   20    charge:    3.9836    magn:    0.4308    constr:    0.0000
     atom:   21    charge:    3.9845    magn:    0.4356    constr:    0.0000
     atom:   22    charge:    3.9735    magn:    0.4267    constr:    0.0000
     atom:   23    charge:    3.9737    magn:    0.4244    constr:    0.0000
     atom:   24    charge:    3.9845    magn:    0.4319    constr:    0.0000
     atom:   25    charge:    3.9855    magn:    0.4316    constr:    0.0000
     atom:   26    charge:    3.9733    magn:    0.4268    constr:    0.0000
     atom:   27    charge:    3.9728    magn:    0.4242    constr:    0.0000
     atom:   28    charge:    3.9843    magn:    0.4320    constr:    0.0000
     atom:   29    charge:    3.9859    magn:    0.4302    constr:    0.0000
     atom:   30    charge:    3.9735    magn:    0.4228    constr:    0.0000
     atom:   31    charge:    3.9731    magn:    0.4313    constr:    0.0000
     atom:   32    charge:    3.9838    magn:    0.4307    constr:    0.0000
     atom:   33    charge:    3.9855    magn:    0.4316    constr:    0.0000
     atom:   34    charge:    3.9735    magn:    0.4228    constr:    0.0000
     atom:   35    charge:    3.9728    magn:    0.4242    constr:    0.0000
     atom:   36    charge:    3.9838    magn:    0.4307    constr:    0.0000
     atom:   37    charge:    0.5654    magn:    0.1755    constr:    0.0000

     total cpu time spent up to now is     1999.7 secs

     total energy              =   -3633.78570473 Ry
     Harris-Foulkes estimate   =   -3633.78775559 Ry
     estimated scf accuracy    <       0.05210186 Ry

     total magnetization       =    24.75 Bohr mag/cell
     absolute magnetization    =    28.97 Bohr mag/cell

     iteration # 17     ecut=    44.10 Ry     beta=0.10
     Davidson diagonalization with overlap
     ethr =  1.43E-05,  avg # of iterations =  5.1

     negative rho (up, down):  3.917E-04 3.666E-04
 
     Adding external electric field

     Computed dipole along edir(3) : 
        Dipole               -0.3859 Ry au,         -0.9808 Debye
        Dipole field         -0.0005 Ry au
 
        Potential amp.        0.0329 Ry
        Total length         34.5908 bohr
 
 
     Adding external electric field

     Computed dipole along edir(3) : 
        Dipole               -0.3859 Ry au,         -0.9808 Debye
        Dipole field         -0.0005 Ry au
 
        Potential amp.        0.0329 Ry
        Total length         34.5908 bohr
 
 
     Magnetic moment per site:
     atom:    1    charge:    3.9851    magn:    0.4327    constr:    0.0000
     atom:    2    charge:    3.9735    magn:    0.4168    constr:    0.0000
     atom:    3    charge:    3.9737    magn:    0.4199    constr:    0.0000
     atom:    4    charge:    3.9866    magn:    0.4368    constr:    0.0000
     atom:    5    charge:    3.9851    magn:    0.4327    constr:    0.0000
     atom:    6    charge:    3.9738    magn:    0.3874    constr:    0.0000
     atom:    7    charge:    3.9737    magn:    0.4199    constr:    0.0000
     atom:    8    charge:    3.9504    magn:    0.0826    constr:    0.0000
     atom:    9    charge:    3.9850    magn:    0.4268    constr:    0.0000
     atom:   10    charge:    3.9735    magn:    0.4168    constr:    0.0000
     atom:   11    charge:    3.9726    magn:    0.4226    constr:    0.0000
     atom:   12    charge:    3.9866    magn:    0.4368    constr:    0.0000
     atom:   13    charge:    3.9849    magn:    0.4268    constr:    0.0000
     atom:   14    charge:    3.9733    magn:    0.4195    constr:    0.0000
     atom:   15    charge:    3.9725    magn:    0.4227    constr:    0.0000
     atom:   16    charge:    3.9836    magn:    0.4288    constr:    0.0000
     atom:   17    charge:    3.9851    magn:    0.4326    constr:    0.0000
     atom:   18    charge:    3.9733    magn:    0.4195    constr:    0.0000
     atom:   19    charge:    3.9737    magn:    0.4200    constr:    0.0000
     atom:   20    charge:    3.9836    magn:    0.4288    constr:    0.0000
     atom:   21    charge:    3.9851    magn:    0.4326    constr:    0.0000
     atom:   22    charge:    3.9735    magn:    0.4230    constr:    0.0000
     atom:   23    charge:    3.9737    magn:    0.4200    constr:    0.0000
     atom:   24    charge:    3.9845    magn:    0.4297    constr:    0.0000
     atom:   25    charge:    3.9849    magn:    0.4297    constr:    0.0000
     atom:   26    charge:    3.9735    magn:    0.4230    constr:    0.0000
     atom:   27    charge:    3.9727    magn:    0.4209    constr:    0.0000
     atom:   28    charge:    3.9845    magn:    0.4298    constr:    0.0000
     atom:   29    charge:    3.9855    magn:    0.4282    constr:    0.0000
     atom:   30    charge:    3.9732    magn:    0.4195    constr:    0.0000
     atom:   31    charge:    3.9729    magn:    0.4276    constr:    0.0000
     atom:   32    charge:    3.9836    magn:    0.4288    constr:    0.0000
     atom:   33    charge:    3.9849    magn:    0.4297    constr:    0.0000
     atom:   34    charge:    3.9732    magn:    0.4195    constr:    0.0000
     atom:   35    charge:    3.9727    magn:    0.4209    constr:    0.0000
     atom:   36    charge:    3.9836    magn:    0.4288    constr:    0.0000
     atom:   37    charge:    0.5643    magn:    0.1701    constr:    0.0000

     total cpu time spent up to now is     2126.8 secs

     total energy              =   -3633.78620022 Ry
     Harris-Foulkes estimate   =   -3633.78756947 Ry
     estimated scf accuracy    <       0.03967279 Ry

     total magnetization       =    24.60 Bohr mag/cell
     absolute magnetization    =    28.83 Bohr mag/cell

     iteration # 18     ecut=    44.10 Ry     beta=0.10
     Davidson diagonalization with overlap
     ethr =  1.09E-05,  avg # of iterations =  3.0

     negative rho (up, down):  3.838E-04 3.515E-04
 
     Adding external electric field

     Computed dipole along edir(3) : 
        Dipole               -0.3977 Ry au,         -1.0108 Debye
        Dipole field         -0.0005 Ry au
 
        Potential amp.        0.0339 Ry
        Total length         34.5908 bohr
 
 
     Adding external electric field

     Computed dipole along edir(3) : 
        Dipole               -0.3977 Ry au,         -1.0108 Debye
        Dipole field         -0.0005 Ry au
 
        Potential amp.        0.0339 Ry
        Total length         34.5908 bohr
 
 
     Magnetic moment per site:
     atom:    1    charge:    3.9851    magn:    0.4304    constr:    0.0000
     atom:    2    charge:    3.9732    magn:    0.4138    constr:    0.0000
     atom:    3    charge:    3.9735    magn:    0.4163    constr:    0.0000
     atom:    4    charge:    3.9863    magn:    0.4339    constr:    0.0000
     atom:    5    charge:    3.9851    magn:    0.4304    constr:    0.0000
     atom:    6    charge:    3.9736    magn:    0.3839    constr:    0.0000
     atom:    7    charge:    3.9735    magn:    0.4163    constr:    0.0000
     atom:    8    charge:    3.9504    magn:    0.0745    constr:    0.0000
     atom:    9    charge:    3.9852    magn:    0.4247    constr:    0.0000
     atom:   10    charge:    3.9732    magn:    0.4138    constr:    0.0000
     atom:   11    charge:    3.9725    magn:    0.4198    constr:    0.0000
     atom:   12    charge:    3.9863    magn:    0.4339    constr:    0.0000
     atom:   13    charge:    3.9852    magn:    0.4246    constr:    0.0000
     atom:   14    charge:    3.9736    magn:    0.4160    constr:    0.0000
     atom:   15    charge:    3.9726    magn:    0.4198    constr:    0.0000
     atom:   16    charge:    3.9842    magn:    0.4263    constr:    0.0000
     atom:   17    charge:    3.9851    magn:    0.4303    constr:    0.0000
     atom:   18    charge:    3.9736    magn:    0.4160    constr:    0.0000
[...]
     5.8673   5.8847   5.9285   6.0350   6.3379   6.3504   6.4788   6.5135
     6.5305   6.5510   6.6614   6.7215   6.7506   6.8031   6.8137   7.0729
     7.1367   7.2044   7.2806   7.4918   7.5796   7.7124   7.8666   7.8842
     7.9745   8.0231   8.0522   8.2296   8.3142   8.3646   8.3780   8.5280
     8.5568   8.5736   8.8537   8.8619   8.9469   9.1244   9.1377   9.1505
     9.4386   9.5037   9.5930   9.6280   9.7365   9.8146   9.8191   9.8898
     9.9057   9.9530

 ------ SPIN DOWN ----------


          k = 0.0000 0.0000 0.0000 ( 50455 PWs)   bands (ev):

    -9.6421  -7.4026  -6.1418  -6.1084  -4.9998  -4.9870  -4.6830  -4.1323
    -4.1155  -4.1041  -4.0990  -3.9440  -3.9388  -3.6466  -3.5829  -3.4877
    -3.4092  -3.3500  -3.3416  -3.2626  -3.1624  -2.9768  -2.9528  -2.8209
    -2.8127  -2.7803  -2.7525  -2.5914  -2.5859  -2.5757  -2.5677  -2.5265
    -2.5145  -2.4808  -2.4148  -2.4101  -2.4043  -2.3759  -2.3699  -2.3292
    -2.3290  -2.2948  -2.2576  -2.2160  -2.1751  -2.1360  -2.1172  -2.0763
    -2.0235  -1.9962  -1.9782  -1.9462  -1.9312  -1.9037  -1.8793  -1.8581
    -1.8070  -1.7875  -1.7025  -1.6842  -1.6768  -1.5844  -1.5793  -1.5772
    -1.5562  -1.4784  -1.4747  -1.4408  -1.4333  -1.4122  -1.4053  -1.3835
    -1.3799  -1.3686  -1.3597  -1.3527  -1.3430  -1.2558  -1.2526  -1.2515
    -1.2381  -1.2099  -1.1592  -1.0961  -1.0780  -1.0665  -1.0450  -1.0431
    -1.0361  -1.0137  -1.0094  -1.0023  -0.9980  -0.9892  -0.9691  -0.9518
    -0.9121  -0.9000  -0.8816  -0.8745  -0.8603  -0.7387  -0.7209  -0.7126
    -0.7121  -0.6950  -0.6834  -0.6752  -0.6675  -0.6477  -0.6386  -0.6321
    -0.5709  -0.5679  -0.5507  -0.5331  -0.4676  -0.4467  -0.4428  -0.4310
    -0.4209  -0.4174  -0.4152  -0.4095  -0.3760  -0.3570  -0.3505  -0.2940
    -0.2540  -0.2241  -0.1959  -0.1921  -0.1889  -0.1721  -0.1679  -0.1673
    -0.1044  -0.0938  -0.0730  -0.0570  -0.0560  -0.0342   0.0330   0.0432
     0.0488   0.0492   0.0585   0.0658   0.0795   0.0840   0.0935   0.1201
     0.1649   0.1725   0.1928   0.2108   0.2170   0.2210   0.2489   0.2623
     0.2630   0.2724   0.2832   0.2883   0.3120   0.3204   0.3253   0.3614
     0.3798   0.3826   0.3926   0.3977   0.4001   0.4013   0.4062   0.4182
     0.4201   0.4277   0.4277   0.4423   0.4497   0.4569   0.4798   0.4849
     0.5075   0.5156   0.5570   0.5604   0.5636   0.5754   0.6303   0.6841
     0.7164   0.7320   0.7390   0.7669   0.8068   0.8994   1.0848   1.1628
     1.2523   1.6713   1.7411   1.9031   2.0405   2.2068   2.2595   2.8799
     3.0132   3.0238   3.1116   3.1872   3.1994   3.2619   3.2800   3.3491
     3.5465   3.8876   4.2921   4.2934   4.3721   4.4766   4.6284   4.9785
     5.2839   5.4503   5.5961   5.5964   5.6682   5.6876   5.6982   5.7081
     5.7336   5.8039   6.1802   6.2240   6.2639   6.3388   6.6744   6.6884
     6.7689   6.8081   6.9136   7.0155   7.0337   7.3625   7.4464   7.5698
     7.7183   7.7931   7.9219   7.9281   7.9386   7.9486   7.9604   7.9610
     8.1042   8.1394   8.1542   8.1646   8.1815   8.1898   8.4836   8.5425
     8.5559   8.6673   8.7023   8.7175   8.7183   8.8096   8.8337   9.0331
     9.0594   9.1662   9.2016   9.2035   9.3671   9.3933   9.4680   9.6005
     9.6033   9.6160

          k = 0.0000 0.0541 0.0000 ( 50496 PWs)   bands (ev):

    -9.6389  -6.9598  -6.5282  -6.1084  -5.7068  -4.9804  -4.3395  -4.3014
    -4.0947  -4.0500  -3.8263  -3.7130  -3.6228  -3.5961  -3.4805  -3.4240
    -3.3782  -3.3650  -3.2798  -3.1837  -3.1591  -3.0895  -3.0700  -3.0065
    -2.9751  -2.9546  -2.7599  -2.7401  -2.6790  -2.6448  -2.6266  -2.6143
    -2.5967  -2.5450  -2.5070  -2.3797  -2.3640  -2.3418  -2.3094  -2.2804
    -2.2650  -2.2250  -2.2080  -2.1818  -2.1420  -2.1229  -2.1120  -2.0817
    -2.0424  -1.9859  -1.9682  -1.9503  -1.9046  -1.8812  -1.8581  -1.8071
    -1.7905  -1.7589  -1.7430  -1.7159  -1.6901  -1.6535  -1.6226  -1.6151
    -1.6035  -1.5619  -1.5464  -1.4969  -1.4613  -1.4484  -1.4166  -1.3897
    -1.3814  -1.3734  -1.3471  -1.3309  -1.3087  -1.2810  -1.2595  -1.2332
    -1.2205  -1.2029  -1.1883  -1.1787  -1.1540  -1.1368  -1.1261  -1.1010
    -1.0721  -1.0659  -1.0361  -1.0321  -1.0086  -0.9965  -0.9786  -0.9623
    -0.9519  -0.9294  -0.9140  -0.8716  -0.8454  -0.8301  -0.8050  -0.7769
    -0.7612  -0.7170  -0.7046  -0.6687  -0.6520  -0.6380  -0.6170  -0.6153
    -0.5839  -0.5550  -0.5470  -0.5272  -0.4860  -0.4696  -0.4661  -0.4523
    -0.4448  -0.4377  -0.4052  -0.4044  -0.3907  -0.3697  -0.3580  -0.3527
    -0.3456  -0.3027  -0.2846  -0.2818  -0.2283  -0.2140  -0.1700  -0.1578
    -0.1504  -0.1311  -0.1145  -0.1015  -0.0374  -0.0199   0.0038   0.0064
     0.0341   0.0630   0.0740   0.0888   0.0978   0.1187   0.1343   0.1573
     0.1595   0.1758   0.1853   0.1974   0.2211   0.2289   0.2565   0.2668
     0.2809   0.3032   0.3092   0.3175   0.3318   0.3428   0.3486   0.3517
     0.3655   0.3721   0.3802   0.3875   0.4052   0.4211   0.4428   0.4818
     0.4942   0.5197   0.5287   0.5472   0.5573   0.5630   0.5667   0.5962
     0.6132   0.6344   0.6390   0.6464   0.6481   0.6628   0.6744   0.6886
     0.8647   0.9939   1.0588   1.1601   1.2623   1.2841   1.3200   1.3942
     1.6023   1.7436   1.8825   2.0112   2.0629   2.1977   2.3114   2.5904
     2.6995   2.7807   2.9550   3.0972   3.1433   3.2261   3.5967   3.6966
     3.7847   3.8074   4.0262   4.1977   4.2465   4.4236   4.5341   4.7410
     4.7871   4.8067   5.0235   5.2852   5.4311   5.4491   5.5430   5.6609
     5.7759   5.9971   6.0355   6.0643   6.1320   6.2701   6.5291   6.5812
     6.5885   6.6746   6.7186   6.8943   6.9263   6.9910   7.0829   7.1950
     7.2338   7.3456   7.3932   7.5607   7.6744   7.8120   7.8618   7.9977
     8.0504   8.1029   8.1768   8.2523   8.2896   8.3919   8.4900   8.5340
     8.6732   8.8919   8.9472   9.0054   9.0103   9.0642   9.0997   9.1784
     9.2558   9.3068   9.3560   9.4120   9.4341   9.5200   9.5591   9.5877
     9.6302   9.7499

          k = 0.0255 0.0180 0.0000 ( 50428 PWs)   bands (ev):

    -9.6419  -7.2568  -6.8181  -5.2402  -4.8877  -4.8764  -4.5987  -4.5704
    -4.5480  -4.3293  -4.2965  -3.6852  -3.6197  -3.5725  -3.4585  -3.4183
    -3.3849  -3.2621  -3.2461  -3.2004  -3.1693  -3.1511  -3.1424  -3.0621
    -2.9862  -2.9505  -2.7390  -2.5751  -2.5687  -2.5645  -2.5092  -2.4889
    -2.4497  -2.4357  -2.4111  -2.4056  -2.3851  -2.3317  -2.3272  -2.2487
    -2.2186  -2.2159  -2.1642  -2.1616  -2.1410  -2.1403  -2.1342  -2.1041
    -2.0494  -2.0269  -1.9881  -1.9701  -1.9402  -1.9208  -1.9105  -1.9066
    -1.8406  -1.8020  -1.7768  -1.7406  -1.7149  -1.6730  -1.6163  -1.5650
    -1.5155  -1.5140  -1.4625  -1.4477  -1.4460  -1.4316  -1.4141  -1.3941
    -1.3649  -1.3338  -1.3270  -1.3202  -1.2881  -1.2858  -1.2665  -1.2430
    -1.2339  -1.2179  -1.2164  -1.1504  -1.1326  -1.0245  -1.0146  -0.9868
    -0.9821  -0.9787  -0.9515  -0.9469  -0.9385  -0.9317  -0.9301  -0.8954
    -0.8876  -0.8851  -0.8635  -0.8522  -0.8317  -0.8214  -0.8093  -0.7650
    -0.7434  -0.7302  -0.7206  -0.7029  -0.6817  -0.6435  -0.6269  -0.6053
    -0.5687  -0.5653  -0.5410  -0.5179  -0.5108  -0.4972  -0.4638  -0.4318
    -0.4168  -0.4062  -0.3954  -0.3920  -0.3732  -0.3575  -0.3366  -0.3301
    -0.2922  -0.2813  -0.2472  -0.2391  -0.2171  -0.1933  -0.1785  -0.1493
    -0.1419  -0.1119  -0.1080  -0.1049  -0.0338   0.0227   0.0368   0.0645
     0.0667   0.0754   0.0996   0.1124   0.1149   0.1178   0.1254   0.1344
     0.1545   0.1717   0.2004   0.2024   0.2150   0.2383   0.2452   0.2455
     0.2767   0.2839   0.3026   0.3076   0.3202   0.3314   0.3375   0.3458
     0.3590   0.3689   0.3704   0.3751   0.3834   0.3917   0.4101   0.4118
     0.4305   0.4342   0.4446   0.4550   0.4842   0.4885   0.5014   0.5383
     0.5575   0.5703   0.5997   0.6381   0.6484   0.6533   0.6648   0.6913
     0.6917   0.7342   0.7908   0.8252   0.8627   0.8909   1.0313   1.1137
     1.2023   1.5295   1.5543   1.6557   1.9424   1.9744   2.2384   2.5145
     2.9416   2.9904   3.0749   3.1972   3.2541   3.4066   3.5148   3.6516
     3.7603   3.8882   4.1373   4.4848   4.5923   4.6504   4.7304   4.7787
     5.0173   5.3620   5.4171   5.4708   5.6791   5.6805   5.7728   5.9504
     6.1953   6.1969   6.2602   6.3071   6.3234   6.3964   6.6547   6.7073
     6.7655   6.9496   6.9998   7.2244   7.2492   7.2852   7.3565   7.3582
     7.4959   7.5407   7.6051   7.6557   7.6966   7.8103   7.8754   7.9241
     7.9763   8.0149   8.1155   8.1348   8.2460   8.3151   8.3953   8.4061
     8.4796   8.4945   8.5198   8.6383   8.7611   8.8373   8.8439   8.9032
     8.9391   9.1018   9.1113   9.1692   9.2345   9.3335   9.4048   9.4206
     9.5444   9.5594

          k = 0.0255 0.0721 0.0000 ( 50496 PWs)   bands (ev):

    -9.6389  -6.9598  -6.5283  -6.1084  -5.7068  -4.9804  -4.3395  -4.3013
    -4.0947  -4.0500  -3.8263  -3.7130  -3.6228  -3.5961  -3.4805  -3.4240
    -3.3782  -3.3650  -3.2798  -3.1837  -3.1591  -3.0895  -3.0700  -3.0065
    -2.9751  -2.9546  -2.7599  -2.7401  -2.6789  -2.6448  -2.6266  -2.6143
    -2.5967  -2.5450  -2.5070  -2.3797  -2.3640  -2.3418  -2.3094  -2.2804
    -2.2650  -2.2250  -2.2080  -2.1818  -2.1420  -2.1229  -2.1120  -2.0817
    -2.0424  -1.9859  -1.9682  -1.9503  -1.9046  -1.8812  -1.8581  -1.8072
    -1.7905  -1.7589  -1.7430  -1.7159  -1.6901  -1.6535  -1.6226  -1.6151
    -1.6035  -1.5619  -1.5464  -1.4969  -1.4613  -1.4484  -1.4166  -1.3897
    -1.3814  -1.3734  -1.3471  -1.3309  -1.3087  -1.2810  -1.2595  -1.2332
    -1.2205  -1.2029  -1.1883  -1.1787  -1.1541  -1.1368  -1.1261  -1.1010
    -1.0721  -1.0658  -1.0361  -1.0321  -1.0086  -0.9965  -0.9786  -0.9623
    -0.9519  -0.9294  -0.9140  -0.8716  -0.8454  -0.8301  -0.8050  -0.7769
    -0.7612  -0.7170  -0.7046  -0.6687  -0.6520  -0.6379  -0.6170  -0.6152
    -0.5839  -0.5550  -0.5470  -0.5272  -0.4860  -0.4696  -0.4661  -0.4523
    -0.4448  -0.4377  -0.4052  -0.4044  -0.3907  -0.3698  -0.3580  -0.3527
    -0.3456  -0.3027  -0.2846  -0.2818  -0.2283  -0.2140  -0.1700  -0.1578
    -0.1504  -0.1311  -0.1145  -0.1015  -0.0374  -0.0199   0.0038   0.0064
     0.0341   0.0630   0.0739   0.0888   0.0978   0.1187   0.1343   0.1573
     0.1595   0.1758   0.1853   0.1974   0.2211   0.2289   0.2565   0.2668
     0.2809   0.3032   0.3092   0.3175   0.3318   0.3428   0.3486   0.3517
     0.3655   0.3721   0.3802   0.3875   0.4052   0.4211   0.4428   0.4817
     0.4942   0.5197   0.5287   0.5472   0.5573   0.5630   0.5667   0.5962
     0.6132   0.6344   0.6390   0.6464   0.6481   0.6628   0.6744   0.6886
     0.8647   0.9939   1.0588   1.1601   1.2623   1.2841   1.3200   1.3942
     1.6023   1.7436   1.8825   2.0112   2.0629   2.1977   2.3114   2.5904
     2.6995   2.7807   2.9550   3.0972   3.1433   3.2261   3.5967   3.6966
     3.7847   3.8074   4.0262   4.1977   4.2465   4.4236   4.5341   4.7410
     4.7871   4.8068   5.0235   5.2852   5.4311   5.4491   5.5430   5.6609
     5.7758   5.9971   6.0355   6.0644   6.1319   6.2701   6.5292   6.5812
     6.5885   6.6746   6.7186   6.8943   6.9263   6.9910   7.0829   7.1950
     7.2338   7.3456   7.3932   7.5607   7.6744   7.8120   7.8618   7.9976
     8.0504   8.1029   8.1768   8.2523   8.2896   8.3919   8.4900   8.5340
     8.6732   8.8919   8.9472   9.0054   9.0104   9.0642   9.0998   9.1784
     9.2558   9.3068   9.3560   9.4119   9.4341   9.5200   9.5591   9.5877
     9.6302   9.7498

          k = 0.0255-0.0361 0.0000 ( 50488 PWs)   bands (ev):

    -9.6390  -7.1044  -6.2460  -5.8599  -5.8320  -5.0865  -5.0736  -4.4298
    -3.8851  -3.8142  -3.7136  -3.6916  -3.5246  -3.5126  -3.5124  -3.3877
    -3.3717  -3.2665  -3.2635  -3.1683  -3.0734  -3.0627  -3.0047  -3.0026
    -2.9620  -2.8777  -2.8746  -2.7752  -2.7597  -2.6297  -2.6268  -2.6140
    -2.5915  -2.5575  -2.4860  -2.4783  -2.4398  -2.3919  -2.3840  -2.3527
    -2.2310  -2.2136  -2.1921  -2.1594  -2.1053  -2.1028  -2.0737  -2.0719
    -2.0563  -2.0188  -2.0179  -2.0036  -1.9624  -1.9468  -1.8771  -1.7894
    -1.7609  -1.7415  -1.7259  -1.6519  -1.6135  -1.5807  -1.5583  -1.5559
    -1.5051  -1.5042  -1.4800  -1.4701  -1.4620  -1.4461  -1.4385  -1.4308
    -1.4292  -1.4255  -1.3914  -1.3882  -1.3423  -1.3176  -1.3018  -1.2794
    -1.2005  -1.1798  -1.1780  -1.1576  -1.1386  -1.1038  -1.0896  -1.0794
    -1.0654  -1.0593  -1.0463  -1.0055  -0.9971  -0.9916  -0.9737  -0.9594
    -0.9478  -0.9121  -0.8858  -0.8704  -0.8494  -0.8440  -0.8085  -0.8031
    -0.7824  -0.7563  -0.7470  -0.7204  -0.7119  -0.6972  -0.6815  -0.6798
    -0.6303  -0.6206  -0.5932  -0.5325  -0.5181  -0.5156  -0.4747  -0.4744
    -0.4595  -0.4336  -0.4266  -0.4098  -0.3825  -0.3599  -0.3360  -0.3149
    -0.2978  -0.2888  -0.2702  -0.2277  -0.2221  -0.2083  -0.1762  -0.1399
    -0.1381  -0.1200  -0.0916  -0.0550  -0.0239  -0.0062   0.0394   0.0466
     0.0607   0.0807   0.0840   0.0969   0.1012   0.1228   0.1320   0.1366
     0.1475   0.1708   0.1824   0.2050   0.2089   0.2232   0.2461   0.2534
     0.2834   0.2869   0.2888   0.2913   0.3261   0.3420   0.3472   0.3620
     0.3674   0.3809   0.4028   0.4203   0.4208   0.4297   0.4428   0.4478
     0.4624   0.4660   0.4878   0.4887   0.5470   0.5649   0.5844   0.6138
     0.6176   0.6278   0.6310   0.6445   0.6474   0.6834   0.7397   0.8250
     0.9797   0.9869   1.1121   1.1354   1.2525   1.2876   1.4068   1.4193
     1.4883   1.6455   1.7362   2.0362   2.0725   2.3284   2.4592   2.4605
     2.7634   2.9043   3.0656   3.0761   3.2766   3.3879   3.4405   3.5119
     3.6088   3.6135   3.7505   3.9907   4.2510   4.3456   4.3657   4.6587
     4.6831   5.1097   5.1431   5.2066   5.4526   5.4813   5.6609   5.7552
     5.8889   5.8891   5.9628   6.1787   6.3771   6.3887   6.5144   6.6622
     6.7412   6.7542   6.8109   6.8133   6.8212   6.8647   7.0024   7.1215
     7.1702   7.2487   7.3081   7.6187   7.6402   7.7886   8.0092   8.0392
     8.0768   8.0785   8.1726   8.2683   8.3493   8.4153   8.4361   8.6104
     8.7239   8.7455   8.8713   8.9115   9.0003   9.1519   9.1820   9.1974
     9.5293   9.5905   9.6443   9.6634   9.7683   9.8503   9.8667   9.9316
     9.9934  10.0047

     the Fermi energy is     0.3957 ev

!    total energy              =   -3633.83842099 Ry
     Harris-Foulkes estimate   =   -3633.83842297 Ry
     estimated scf accuracy    <       0.00000042 Ry

     The total energy is the sum of the following terms:

     one-electron contribution =  -18850.57608705 Ry
     hartree contribution      =    9802.79499830 Ry
     xc contribution           =   -1508.70540685 Ry
     ewald contribution        =    6922.83470129 Ry
     electric field correction =       0.00011405 Ry
     smearing contrib. (-TS)   =      -0.18674071 Ry

     total magnetization       =    23.18 Bohr mag/cell
     absolute magnetization    =    26.99 Bohr mag/cell

     convergence has been achieved in  17 iterations

     Forces acting on atoms (Ry/au):


     negative rho (up, down):  3.971E-04 2.992E-04
     atom    1 type  1   force =    -0.00024237   -0.00019318    0.01930670
     atom    2 type  1   force =    -0.00012743    0.00027030   -0.01578432
     atom    3 type  1   force =    -0.00034783   -0.00018922    0.00013814
     atom    4 type  1   force =    -0.00007063    0.00015020   -0.00009071
     atom    5 type  1   force =    -0.00022948   -0.00017771    0.01929922
     atom    6 type  1   force =     0.00005956    0.00002859   -0.02912309
     atom    7 type  1   force =    -0.00029531   -0.00025125    0.00014216
     atom    8 type  1   force =     0.00000709    0.00002348    0.00041144
     atom    9 type  1   force =     0.00022932    0.00020234    0.01961036
     atom   10 type  1   force =     0.00022907   -0.00018571   -0.01576858
     atom   11 type  1   force =    -0.00022861   -0.00017598    0.00040139
     atom   12 type  1   force =     0.00013317   -0.00012472   -0.00009517
     atom   13 type  1   force =    -0.00021770   -0.00016411    0.01957467
     atom   14 type  1   force =    -0.00111652    0.00023321   -0.01906416
     atom   15 type  1   force =     0.00008720    0.00004133    0.00029741
     atom   16 type  1   force =    -0.00002667    0.00003283    0.00017022
     atom   17 type  1   force =     0.00027125    0.00018412    0.01926315
     atom   18 type  1   force =    -0.00013535   -0.00109502   -0.01907244
     atom   19 type  1   force =     0.00013192    0.00015728    0.00006054
     atom   20 type  1   force =     0.00003422   -0.00003517    0.00017222
     atom   21 type  1   force =     0.00025773    0.00019748    0.01926524
     atom   22 type  1   force =    -0.00034286   -0.00026577   -0.01955692
     atom   23 type  1   force =     0.00018162    0.00008478    0.00004491
     atom   24 type  1   force =    -0.00000133    0.00000657    0.00016785
     atom   25 type  1   force =    -0.00006709    0.00002768    0.01954271
     atom   26 type  1   force =     0.00033958    0.00017550   -0.01935362
     atom   27 type  1   force =     0.00014132    0.00012684    0.00033236
     atom   28 type  1   force =    -0.00002934   -0.00002824   -0.00002089
     atom   29 type  1   force =    -0.00005034    0.00001324    0.01897834
     atom   30 type  1   force =     0.00008756    0.00109244   -0.01885945
     atom   31 type  1   force =     0.00015738    0.00011246    0.00031651
     atom   32 type  1   force =    -0.00004939    0.00002329   -0.00002298
     atom   33 type  1   force =     0.00004093   -0.00009550    0.01955165
     atom   34 type  1   force =     0.00102279   -0.00024465   -0.01887087
     atom   35 type  1   force =     0.00017124    0.00009393    0.00032384
     atom   36 type  1   force =    -0.00000486   -0.00005569   -0.00001963
     atom   37 type  2   force =     0.00000015    0.00000404   -0.00166821

     Total force =     0.083257     Total SCF correction =     0.002060
 !ASE

     Writing output data file calc.save
 
     init_run     :     45.49s CPU     52.21s WALL (       1 calls)
     electrons    :  35248.91s CPU  40717.52s WALL (       9 calls)
     update_pot   :     31.17s CPU     33.26s WALL (       8 calls)
     forces       :    611.78s CPU    637.79s WALL (       9 calls)

     Called by init_run:
     wfcinit      :     27.88s CPU     33.51s WALL (       1 calls)
     potinit      :      1.59s CPU      1.80s WALL (       1 calls)

     Called by electrons:
     c_bands      :  21566.04s CPU  25661.59s WALL (     349 calls)
     sum_band     :   9255.83s CPU  10344.70s WALL (     349 calls)
     v_of_rho     :    207.67s CPU    243.34s WALL (     358 calls)
     newd         :   4264.98s CPU   4506.36s WALL (     358 calls)
     mix_rho      :     43.55s CPU     52.31s WALL (     349 calls)

     Called by c_bands:
     init_us_2    :    114.36s CPU    121.92s WALL (    7080 calls)
     cegterg      :  20897.50s CPU  24966.64s WALL (    3490 calls)

     Called by *egterg:
     h_psi        :  12243.36s CPU  15583.80s WALL (    9647 calls)
     s_psi        :   1693.04s CPU   1751.98s WALL (    9647 calls)
     g_psi        :     42.23s CPU     43.44s WALL (    6147 calls)
     cdiaghg      :   2508.23s CPU   2568.52s WALL (    9557 calls)

     Called by h_psi:
     add_vuspsi   :   1716.00s CPU   1769.75s WALL (    9647 calls)

     General routines
     calbec       :   2599.24s CPU   2666.92s WALL (   13227 calls)
     fft          :    198.47s CPU    235.00s WALL (   11179 calls)
     ffts         :      2.61s CPU      3.62s WALL (    1414 calls)
     fftw         :   6578.90s CPU  10471.14s WALL ( 5129414 calls)
     interpolate  :     25.29s CPU     35.36s WALL (    1414 calls)
     davcio       :      0.04s CPU      1.01s WALL (      10 calls)
 
     Parallel routines
     fft_scatter  :   3635.53s CPU   6084.16s WALL ( 5142007 calls)
 
     PWSCF        :    10h 0m CPU       11h32m WALL

 
   This run was terminated on:  23:37:31  23Feb2018            

=------------------------------------------------------------------------------=
   JOB DONE.
=------------------------------------------------------------------------------=
