  python dir          : /home/vossj/suncat/lib/python2.7/site-packages/espresso
  espresso dir        : /home/vossj/suncat/esdld/espresso-dynpy-beef/bin
  pseudo dir          : /home/alatimer/bin/psp/esp_psp_w_gbrvRu/
  ase-espresso py git : ffa2778-git



     Program PWSCF v.5.1rc2 (svn rev. ) starts on 20Apr2018 at 13:26: 2 

     This program is part of the open-source Quantum ESPRESSO suite
     for quantum simulation of materials; please cite
         "P. Giannozzi et al., J. Phys.:Condens. Matter 21 395502 (2009);
          URL http://www.quantum-espresso.org", 
     in publications or presentations arising from this work. More details at
     http://www.quantum-espresso.org/quote

     Parallel version (MPI), running on    16 processors
     R & G space division:  proc/nbgrp/npool/nimage =      16
     Reading input from pw.inp
     Message from routine read_cards :
     DEPRECATED: no units specified in CELL_PARAMETERS card

     Current dimensions of program PWSCF are:
     Max number of different atomic species (ntypx) = 10
     Max number of k-points (npk) =  40000
     Max angular momentum in pseudopotentials (lmaxx) =  3
     Presently no symmetry can be used with electric field


     IMPORTANT: XC functional enforced from input :
     Exchange-correlation      = RPBE ( 1  4 28  4 0)
     Any further DFT definition will be discarded
     Please, verify this is what you really want


     Subspace diagonalization in iterative solution of the eigenvalue problem:
     a serial algorithm will be used

 
     Parallelization info
     --------------------
     sticks:   dense  smooth     PW     G-vecs:    dense   smooth      PW
     Min         367     147     39               123943    31337    4337
     Max         368     148     40               123966    31384    4354
     Sum        5877    2361    631              1983193   501747   69475
 
     Generating pointlists ...
     new r_m :   0.4125 (alat units)  0.7795 (a.u.) for type    1
     new r_m :   0.4125 (alat units)  0.7795 (a.u.) for type    2


     bravais-lattice index     =            0
     lattice parameter (alat)  =       1.8897  a.u.
     unit-cell volume          =   12682.1321 (a.u.)^3
     number of atoms/cell      =           37
     number of atomic types    =            2
     number of electrons       =       330.00
     number of Kohn-Sham states=          265
     kinetic-energy cutoff     =      44.0992  Ry
     charge density cutoff     =     440.9919  Ry
     convergence threshold     =      7.3E-07
     mixing beta               =       0.1000
     number of iterations used =           10  plain     mixing
     Exchange-correlation      = RPBE ( 1  4 28  4 0)
     nstep                     =           50


     celldm(1)=   1.889726  celldm(2)=   0.000000  celldm(3)=   0.000000
     celldm(4)=   0.000000  celldm(5)=   0.000000  celldm(6)=   0.000000

     crystal axes: (cart. coord. in units of alat)
               a(1) = (   6.191574   0.000000   0.000000 )  
               a(2) = (   0.000000   7.583099   0.000000 )  
               a(3) = (   0.000000   0.000000  40.026524 )  

     reciprocal axes: (cart. coord. in units 2 pi/alat)
               b(1) = (  0.161510  0.000000  0.000000 )  
               b(2) = (  0.000000  0.131872  0.000000 )  
               b(3) = (  0.000000  0.000000  0.024983 )  


     PseudoPot. # 1 for Co read from file:
     /home/alatimer/bin/psp/esp_psp_w_gbrvRu/Co.UPF
     MD5 check sum: f36dda9fe147c5f42efc2a4f7ec0da3d
     Pseudo is Ultrasoft + core correction, Zval =  9.0
     Generated by new atomic code, or converted to UPF format
     Using radial grid of  937 points,  3 beta functions with: 
                l(1) =   1
                l(2) =   2
                l(3) =   2
     Q(r) pseudized with  8 coefficients,  rinner =    1.000   1.000   1.000
                                                       1.000   1.000

     PseudoPot. # 2 for  O read from file:
     /home/alatimer/bin/psp/esp_psp_w_gbrvRu/O.UPF
     MD5 check sum: e057bbcf3229fb5d8c36c0c92f9568b4
     Pseudo is Ultrasoft + core correction, Zval =  6.0
     Generated using "atomic" code by A. Dal Corso  v.5.0.2 svn rev. 9415
     Using radial grid of 1095 points,  4 beta functions with: 
                l(1) =   0
                l(2) =   0
                l(3) =   1
                l(4) =   1
     Q(r) pseudized with 0 coefficients 


     atomic species   valence    mass     pseudopotential
        Co1            9.00    58.93320     Co( 1.00)
        O1             6.00    15.99940      O( 1.00)

     Starting magnetic structure 
     atomic species   magnetization
        Co1          0.444
        O1           0.667

     No symmetry found



   Cartesian axes

     site n.     atom                  positions (alat units)
         1           Co1 tau(   1) = (   4.1277161   1.2638498  24.0265242  )
         2           Co1 tau(   2) = (   4.1277161   3.7915494  24.0265242  )
         3           Co1 tau(   3) = (   4.1277161   6.3192490  24.0265242  )
         4           Co1 tau(   4) = (   2.0638581   0.0000000  23.2968402  )
         5           Co1 tau(   5) = (   2.0638581   2.5276996  23.2968402  )
         6           Co1 tau(   6) = (   2.0638581   5.0553992  23.2968402  )
         7           Co1 tau(   7) = (   0.0000000   1.2638498  22.5671562  )
         8           Co1 tau(   8) = (   0.0000000   3.7915494  22.5671562  )
         9           Co1 tau(   9) = (   0.0000000   6.3192490  22.5671562  )
        10           Co1 tau(  10) = (   4.1277161   0.0000000  21.8374721  )
        11           Co1 tau(  11) = (   4.1277161   2.5276996  21.8374721  )
        12           Co1 tau(  12) = (   4.1277161   5.0553992  21.8374721  )
        13           Co1 tau(  13) = (   2.0638581   1.2638498  21.1077881  )
        14           Co1 tau(  14) = (   2.0638581   3.7915494  21.1077881  )
        15           Co1 tau(  15) = (   2.0638581   6.3192490  21.1077881  )
        16           Co1 tau(  16) = (   0.0000000   0.0000000  20.3781041  )
        17           Co1 tau(  17) = (   0.0000000   2.5276996  20.3781041  )
        18           Co1 tau(  18) = (   0.0000000   5.0553992  20.3781041  )
        19           Co1 tau(  19) = (   4.1277161   1.2638498  19.6484201  )
        20           Co1 tau(  20) = (   4.1277161   3.7915494  19.6484201  )
        21           Co1 tau(  21) = (   4.1277161   6.3192490  19.6484201  )
        22           Co1 tau(  22) = (   2.0638581   0.0000000  18.9187361  )
        23           Co1 tau(  23) = (   2.0638581   2.5276996  18.9187361  )
        24           Co1 tau(  24) = (   2.0638581   5.0553992  18.9187361  )
        25           Co1 tau(  25) = (   0.0000000   1.2638498  18.1890521  )
        26           Co1 tau(  26) = (   0.0000000   3.7915494  18.1890521  )
        27           Co1 tau(  27) = (   0.0000000   6.3192490  18.1890521  )
        28           Co1 tau(  28) = (   4.1277161   0.0000000  17.4593680  )
        29           Co1 tau(  29) = (   4.1277161   2.5276996  17.4593680  )
        30           Co1 tau(  30) = (   4.1277161   5.0553992  17.4593680  )
        31           Co1 tau(  31) = (   2.0638581   1.2638498  16.7296840  )
        32           Co1 tau(  32) = (   2.0638581   3.7915494  16.7296840  )
        33           Co1 tau(  33) = (   2.0638581   6.3192490  16.7296840  )
        34           Co1 tau(  34) = (   0.0000000   0.0000000  16.0000000  )
        35           Co1 tau(  35) = (   0.0000000   2.5276996  16.0000000  )
        36           Co1 tau(  36) = (   0.0000000   5.0553992  16.0000000  )
        37           O1  tau(  37) = (   2.0638581   0.0000000  24.9968402  )

     number of k points=    10  Fermi-Dirac smearing, width (Ry)=  0.0073
                       cart. coord. in units 2pi/alat
        k(    1) = (   0.0000000   0.0000000   0.0000000), wk =   0.1111111
        k(    2) = (   0.0000000   0.0439574   0.0000000), wk =   0.2222222
        k(    3) = (   0.0538366   0.0000000   0.0000000), wk =   0.2222222
        k(    4) = (   0.0538366   0.0439574   0.0000000), wk =   0.2222222
        k(    5) = (   0.0538366  -0.0439574   0.0000000), wk =   0.2222222
        k(    6) = (   0.0000000   0.0000000   0.0000000), wk =   0.1111111
        k(    7) = (   0.0000000   0.0439574   0.0000000), wk =   0.2222222
        k(    8) = (   0.0538366   0.0000000   0.0000000), wk =   0.2222222
        k(    9) = (   0.0538366   0.0439574   0.0000000), wk =   0.2222222
        k(   10) = (   0.0538366  -0.0439574   0.0000000), wk =   0.2222222

     Dense  grid:  1983193 G-vectors     FFT dimensions: (  80,  96, 512)

     Smooth grid:   501747 G-vectors     FFT dimensions: (  50,  64, 320)

     Largest allocated arrays     est. size (Mb)     dimensions
        Kohn-Sham Wavefunctions        16.00 Mb     (    3956,  265)
        NL pseudopotentials            28.73 Mb     (    3956,  476)
        Each V/rho on FFT grid          7.50 Mb     (  245760,   2)
        Each G-vector array             0.95 Mb     (  123962)
        G-vector shells                 0.41 Mb     (   54356)
     Largest temporary arrays     est. size (Mb)     dimensions
        Auxiliary wavefunctions        63.99 Mb     (    3956, 1060)
        Each subspace H/S matrix       17.14 Mb     (    1060, 1060)
        Each <psi_i|beta_j> matrix      1.92 Mb     (     476,  265)
        Arrays for rho mixing          37.50 Mb     (  245760,   10)

     Check: negative/imaginary core charge=   -0.000002    0.000000

     Initial potential from superposition of free atoms
     Check: negative starting charge=(component1):   -0.004334
     Check: negative starting charge=(component2):   -0.001664

     starting charge  329.99032, renormalised to  330.00000

     negative rho (up, down):  4.334E-03 1.664E-03
 
     Adding external electric field

     Computed dipole along edir(3) : 
        Dipole               -0.0016 Ry au,         -0.0042 Debye
        Dipole field         -0.0000 Ry au
 
        Potential amp.        0.0002 Ry
        Total length         73.7482 bohr
 
 
     Adding external electric field

     Computed dipole along edir(3) : 
        Dipole               -0.0016 Ry au,         -0.0042 Debye
        Dipole field         -0.0000 Ry au
 
        Potential amp.        0.0002 Ry
        Total length         73.7482 bohr
 
     Starting wfc are  328 randomized atomic wfcs

     total cpu time spent up to now is       48.7 secs

     Self-consistent Calculation

     iteration #  1     ecut=    44.10 Ry     beta=0.10
     Davidson diagonalization with overlap
     ethr =  1.00E-02,  avg # of iterations =  8.3

     negative rho (up, down):  4.230E-03 1.894E-03
 
     Adding external electric field

     Computed dipole along edir(3) : 
        Dipole               -0.0191 Ry au,         -0.0484 Debye
        Dipole field         -0.0000 Ry au
 
        Potential amp.        0.0028 Ry
        Total length         73.7482 bohr
 
 
     Adding external electric field

     Computed dipole along edir(3) : 
        Dipole               -0.0191 Ry au,         -0.0484 Debye
        Dipole field         -0.0000 Ry au
 
        Potential amp.        0.0028 Ry
        Total length         73.7482 bohr
 
 
     Magnetic moment per site:
     atom:    1    charge:    3.1711    magn:    1.4276    constr:    0.0000
     atom:    2    charge:    3.1749    magn:    1.4228    constr:    0.0000
     atom:    3    charge:    3.1711    magn:    1.4276    constr:    0.0000
     atom:    4    charge:    3.2164    magn:    1.3819    constr:    0.0000
     atom:    5    charge:    3.2024    magn:    1.3971    constr:    0.0000
     atom:    6    charge:    3.2024    magn:    1.3970    constr:    0.0000
     atom:    7    charge:    3.2162    magn:    1.3824    constr:    0.0000
     atom:    8    charge:    3.2157    magn:    1.3824    constr:    0.0000
     atom:    9    charge:    3.2162    magn:    1.3824    constr:    0.0000
     atom:   10    charge:    3.2309    magn:    1.3678    constr:    0.0000
     atom:   11    charge:    3.2300    magn:    1.3682    constr:    0.0000
     atom:   12    charge:    3.2300    magn:    1.3682    constr:    0.0000
     atom:   13    charge:    3.2318    magn:    1.3675    constr:    0.0000
     atom:   14    charge:    3.2310    magn:    1.3691    constr:    0.0000
     atom:   15    charge:    3.2318    magn:    1.3675    constr:    0.0000
     atom:   16    charge:    3.2299    magn:    1.3693    constr:    0.0000
     atom:   17    charge:    3.2309    magn:    1.3684    constr:    0.0000
     atom:   18    charge:    3.2309    magn:    1.3684    constr:    0.0000
     atom:   19    charge:    3.2302    magn:    1.3685    constr:    0.0000
     atom:   20    charge:    3.2298    magn:    1.3688    constr:    0.0000
     atom:   21    charge:    3.2302    magn:    1.3685    constr:    0.0000
     atom:   22    charge:    3.2307    magn:    1.3690    constr:    0.0000
     atom:   23    charge:    3.2301    magn:    1.3694    constr:    0.0000
     atom:   24    charge:    3.2301    magn:    1.3693    constr:    0.0000
     atom:   25    charge:    3.2304    magn:    1.3683    constr:    0.0000
     atom:   26    charge:    3.2303    magn:    1.3684    constr:    0.0000
     atom:   27    charge:    3.2304    magn:    1.3683    constr:    0.0000
     atom:   28    charge:    3.2161    magn:    1.3815    constr:    0.0000
     atom:   29    charge:    3.2159    magn:    1.3815    constr:    0.0000
     atom:   30    charge:    3.2159    magn:    1.3815    constr:    0.0000
     atom:   31    charge:    3.2028    magn:    1.3957    constr:    0.0000
     atom:   32    charge:    3.2030    magn:    1.3953    constr:    0.0000
     atom:   33    charge:    3.2028    magn:    1.3957    constr:    0.0000
     atom:   34    charge:    3.1747    magn:    1.4232    constr:    0.0000
     atom:   35    charge:    3.1748    magn:    1.4231    constr:    0.0000
     atom:   36    charge:    3.1748    magn:    1.4231    constr:    0.0000
     atom:   37    charge:    1.9950    magn:    1.2637    constr:    0.0000

     total cpu time spent up to now is      206.1 secs

     total energy              =   -2913.22068835 Ry
     Harris-Foulkes estimate   =   -2916.94662757 Ry
     estimated scf accuracy    <      24.40769210 Ry

     total magnetization       =    75.93 Bohr mag/cell
     absolute magnetization    =    75.98 Bohr mag/cell

     iteration #  2     ecut=    44.10 Ry     beta=0.10
     Davidson diagonalization with overlap
     ethr =  7.40E-03,  avg # of iterations =  3.3

     negative rho (up, down):  5.308E-03 3.124E-03
 
     Adding external electric field

     Computed dipole along edir(3) : 
        Dipole               -0.0474 Ry au,         -0.1204 Debye
        Dipole field         -0.0000 Ry au
 
        Potential amp.        0.0069 Ry
        Total length         73.7482 bohr
 
 
     Adding external electric field

     Computed dipole along edir(3) : 
        Dipole               -0.0474 Ry au,         -0.1204 Debye
        Dipole field         -0.0000 Ry au
 
        Potential amp.        0.0069 Ry
        Total length         73.7482 bohr
 
 
     Magnetic moment per site:
     atom:    1    charge:    3.2002    magn:    1.3982    constr:    0.0000
     atom:    2    charge:    3.2033    magn:    1.3936    constr:    0.0000
     atom:    3    charge:    3.2002    magn:    1.3982    constr:    0.0000
     atom:    4    charge:    3.2302    magn:    1.3620    constr:    0.0000
     atom:    5    charge:    3.2231    magn:    1.3718    constr:    0.0000
     atom:    6    charge:    3.2231    magn:    1.3718    constr:    0.0000
     atom:    7    charge:    3.2238    magn:    1.3666    constr:    0.0000
     atom:    8    charge:    3.2243    magn:    1.3655    constr:    0.0000
     atom:    9    charge:    3.2238    magn:    1.3666    constr:    0.0000
     atom:   10    charge:    3.2174    magn:    1.3670    constr:    0.0000
     atom:   11    charge:    3.2175    magn:    1.3670    constr:    0.0000
     atom:   12    charge:    3.2175    magn:    1.3671    constr:    0.0000
     atom:   13    charge:    3.2092    magn:    1.3702    constr:    0.0000
     atom:   14    charge:    3.2091    magn:    1.3720    constr:    0.0000
     atom:   15    charge:    3.2092    magn:    1.3702    constr:    0.0000
     atom:   16    charge:    3.2034    magn:    1.3719    constr:    0.0000
     atom:   17    charge:    3.2042    magn:    1.3711    constr:    0.0000
     atom:   18    charge:    3.2042    magn:    1.3711    constr:    0.0000
     atom:   19    charge:    3.2038    magn:    1.3712    constr:    0.0000
     atom:   20    charge:    3.2038    magn:    1.3718    constr:    0.0000
     atom:   21    charge:    3.2038    magn:    1.3712    constr:    0.0000
     atom:   22    charge:    3.2091    magn:    1.3719    constr:    0.0000
     atom:   23    charge:    3.2088    magn:    1.3721    constr:    0.0000
     atom:   24    charge:    3.2088    magn:    1.3721    constr:    0.0000
     atom:   25    charge:    3.2182    magn:    1.3670    constr:    0.0000
     atom:   26    charge:    3.2182    magn:    1.3670    constr:    0.0000
     atom:   27    charge:    3.2182    magn:    1.3670    constr:    0.0000
     atom:   28    charge:    3.2249    magn:    1.3644    constr:    0.0000
     atom:   29    charge:    3.2249    magn:    1.3644    constr:    0.0000
     atom:   30    charge:    3.2249    magn:    1.3644    constr:    0.0000
     atom:   31    charge:    3.2236    magn:    1.3704    constr:    0.0000
     atom:   32    charge:    3.2238    magn:    1.3699    constr:    0.0000
     atom:   33    charge:    3.2236    magn:    1.3704    constr:    0.0000
     atom:   34    charge:    3.2032    magn:    1.3939    constr:    0.0000
     atom:   35    charge:    3.2033    magn:    1.3938    constr:    0.0000
     atom:   36    charge:    3.2033    magn:    1.3938    constr:    0.0000
     atom:   37    charge:    2.0050    magn:    1.2430    constr:    0.0000

     total cpu time spent up to now is      311.5 secs

     total energy              =   -2912.84503993 Ry
     Harris-Foulkes estimate   =   -2923.27196158 Ry
     estimated scf accuracy    <     246.65450332 Ry

     total magnetization       =    73.01 Bohr mag/cell
     absolute magnetization    =    73.24 Bohr mag/cell

     iteration #  3     ecut=    44.10 Ry     beta=0.10
     Davidson diagonalization with overlap
     ethr =  7.40E-03,  avg # of iterations =  1.1

     negative rho (up, down):  7.334E-03 4.771E-03
 
     Adding external electric field

     Computed dipole along edir(3) : 
        Dipole               -0.1292 Ry au,         -0.3285 Debye
        Dipole field         -0.0001 Ry au
 
        Potential amp.        0.0189 Ry
        Total length         73.7482 bohr
 
 
     Adding external electric field

     Computed dipole along edir(3) : 
        Dipole               -0.1292 Ry au,         -0.3285 Debye
        Dipole field         -0.0001 Ry au
 
        Potential amp.        0.0189 Ry
        Total length         73.7482 bohr
 
 
     Magnetic moment per site:
     atom:    1    charge:    3.2176    magn:    1.3763    constr:    0.0000
     atom:    2    charge:    3.2185    magn:    1.3734    constr:    0.0000
     atom:    3    charge:    3.2176    magn:    1.3763    constr:    0.0000
     atom:    4    charge:    3.2199    magn:    1.3593    constr:    0.0000
     atom:    5    charge:    3.2163    magn:    1.3690    constr:    0.0000
     atom:    6    charge:    3.2163    magn:    1.3690    constr:    0.0000
     atom:    7    charge:    3.2147    magn:    1.3648    constr:    0.0000
     atom:    8    charge:    3.2149    magn:    1.3637    constr:    0.0000
     atom:    9    charge:    3.2147    magn:    1.3648    constr:    0.0000
     atom:   10    charge:    3.2133    magn:    1.3605    constr:    0.0000
     atom:   11    charge:    3.2131    magn:    1.3606    constr:    0.0000
     atom:   12    charge:    3.2131    magn:    1.3607    constr:    0.0000
     atom:   13    charge:    3.2099    magn:    1.3604    constr:    0.0000
     atom:   14    charge:    3.2101    magn:    1.3622    constr:    0.0000
     atom:   15    charge:    3.2099    magn:    1.3604    constr:    0.0000
     atom:   16    charge:    3.2079    magn:    1.3596    constr:    0.0000
     atom:   17    charge:    3.2085    magn:    1.3590    constr:    0.0000
     atom:   18    charge:    3.2085    magn:    1.3590    constr:    0.0000
     atom:   19    charge:    3.2080    magn:    1.3592    constr:    0.0000
     atom:   20    charge:    3.2079    magn:    1.3598    constr:    0.0000
     atom:   21    charge:    3.2080    magn:    1.3592    constr:    0.0000
     atom:   22    charge:    3.2098    magn:    1.3622    constr:    0.0000
     atom:   23    charge:    3.2096    magn:    1.3623    constr:    0.0000
     atom:   24    charge:    3.2096    magn:    1.3623    constr:    0.0000
     atom:   25    charge:    3.2134    magn:    1.3609    constr:    0.0000
     atom:   26    charge:    3.2133    magn:    1.3609    constr:    0.0000
     atom:   27    charge:    3.2134    magn:    1.3609    constr:    0.0000
     atom:   28    charge:    3.2149    magn:    1.3630    constr:    0.0000
     atom:   29    charge:    3.2149    magn:    1.3629    constr:    0.0000
     atom:   30    charge:    3.2149    magn:    1.3629    constr:    0.0000
     atom:   31    charge:    3.2173    magn:    1.3667    constr:    0.0000
     atom:   32    charge:    3.2174    magn:    1.3663    constr:    0.0000
     atom:   33    charge:    3.2173    magn:    1.3667    constr:    0.0000
     atom:   34    charge:    3.2189    magn:    1.3732    constr:    0.0000
     atom:   35    charge:    3.2190    magn:    1.3731    constr:    0.0000
     atom:   36    charge:    3.2190    magn:    1.3731    constr:    0.0000
     atom:   37    charge:    2.0084    magn:    1.2256    constr:    0.0000

     total cpu time spent up to now is      405.1 secs

     total energy              =   -2916.70753867 Ry
     Harris-Foulkes estimate   =   -2917.20648202 Ry
     estimated scf accuracy    <      14.90677727 Ry

     total magnetization       =    75.61 Bohr mag/cell
     absolute magnetization    =    75.74 Bohr mag/cell

     iteration #  4     ecut=    44.10 Ry     beta=0.10
     Davidson diagonalization with overlap
     ethr =  4.52E-03,  avg # of iterations =  1.0

     negative rho (up, down):  8.626E-03 5.989E-03
 
     Adding external electric field

     Computed dipole along edir(3) : 
        Dipole                0.5326 Ry au,          1.3538 Debye
        Dipole field          0.0005 Ry au
 
        Potential amp.       -0.0778 Ry
        Total length         73.7482 bohr
 
 
     Adding external electric field

     Computed dipole along edir(3) : 
        Dipole                0.5326 Ry au,          1.3538 Debye
        Dipole field          0.0005 Ry au
 
        Potential amp.       -0.0778 Ry
        Total length         73.7482 bohr
 
 
     Magnetic moment per site:
     atom:    1    charge:    3.2212    magn:    1.3589    constr:    0.0000
     atom:    2    charge:    3.2206    magn:    1.3567    constr:    0.0000
     atom:    3    charge:    3.2212    magn:    1.3589    constr:    0.0000
     atom:    4    charge:    3.2120    magn:    1.3467    constr:    0.0000
     atom:    5    charge:    3.2167    magn:    1.3528    constr:    0.0000
     atom:    6    charge:    3.2167    magn:    1.3528    constr:    0.0000
     atom:    7    charge:    3.2117    magn:    1.3501    constr:    0.0000
     atom:    8    charge:    3.2121    magn:    1.3485    constr:    0.0000
     atom:    9    charge:    3.2117    magn:    1.3501    constr:    0.0000
     atom:   10    charge:    3.2071    magn:    1.3464    constr:    0.0000
     atom:   11    charge:    3.2070    magn:    1.3464    constr:    0.0000
     atom:   12    charge:    3.2070    magn:    1.3464    constr:    0.0000
     atom:   13    charge:    3.2074    magn:    1.3437    constr:    0.0000
     atom:   14    charge:    3.2078    magn:    1.3459    constr:    0.0000
     atom:   15    charge:    3.2074    magn:    1.3437    constr:    0.0000
     atom:   16    charge:    3.2066    magn:    1.3430    constr:    0.0000
     atom:   17    charge:    3.2070    magn:    1.3424    constr:    0.0000
     atom:   18    charge:    3.2070    magn:    1.3424    constr:    0.0000
     atom:   19    charge:    3.2067    magn:    1.3425    constr:    0.0000
     atom:   20    charge:    3.2066    magn:    1.3431    constr:    0.0000
     atom:   21    charge:    3.2067    magn:    1.3425    constr:    0.0000
     atom:   22    charge:    3.2080    magn:    1.3452    constr:    0.0000
     atom:   23    charge:    3.2079    magn:    1.3451    constr:    0.0000
     atom:   24    charge:    3.2079    magn:    1.3451    constr:    0.0000
     atom:   25    charge:    3.2088    magn:    1.3456    constr:    0.0000
     atom:   26    charge:    3.2088    magn:    1.3456    constr:    0.0000
     atom:   27    charge:    3.2088    magn:    1.3456    constr:    0.0000
     atom:   28    charge:    3.2143    magn:    1.3457    constr:    0.0000
     atom:   29    charge:    3.2143    magn:    1.3456    constr:    0.0000
     atom:   30    charge:    3.2143    magn:    1.3456    constr:    0.0000
     atom:   31    charge:    3.2206    magn:    1.3475    constr:    0.0000
     atom:   32    charge:    3.2207    magn:    1.3468    constr:    0.0000
     atom:   33    charge:    3.2206    magn:    1.3475    constr:    0.0000
     atom:   34    charge:    3.2276    magn:    1.3504    constr:    0.0000
     atom:   35    charge:    3.2276    magn:    1.3504    constr:    0.0000
     atom:   36    charge:    3.2276    magn:    1.3504    constr:    0.0000
     atom:   37    charge:    2.0134    magn:    1.1930    constr:    0.0000

     total cpu time spent up to now is      498.4 secs

     total energy              =   -2916.93109635 Ry
     Harris-Foulkes estimate   =   -2916.93838732 Ry
     estimated scf accuracy    <       3.53798356 Ry

     total magnetization       =    75.87 Bohr mag/cell
     absolute magnetization    =    75.99 Bohr mag/cell

     iteration #  5     ecut=    44.10 Ry     beta=0.10
     Davidson diagonalization with overlap
     ethr =  1.07E-03,  avg # of iterations =  6.9

     negative rho (up, down):  6.584E-03 5.173E-03
 
     Adding external electric field

     Computed dipole along edir(3) : 
        Dipole               -0.1913 Ry au,         -0.4863 Debye
        Dipole field         -0.0002 Ry au
 
        Potential amp.        0.0280 Ry
        Total length         73.7482 bohr
 
 
     Adding external electric field

     Computed dipole along edir(3) : 
        Dipole               -0.1913 Ry au,         -0.4863 Debye
        Dipole field         -0.0002 Ry au
 
        Potential amp.        0.0280 Ry
        Total length         73.7482 bohr
 
 
     Magnetic moment per site:
     atom:    1    charge:    3.2408    magn:    1.2997    constr:    0.0000
     atom:    2    charge:    3.2363    magn:    1.2996    constr:    0.0000
     atom:    3    charge:    3.2408    magn:    1.2997    constr:    0.0000
     atom:    4    charge:    3.1957    magn:    1.3057    constr:    0.0000
     atom:    5    charge:    3.2252    magn:    1.2993    constr:    0.0000
     atom:    6    charge:    3.2252    magn:    1.2993    constr:    0.0000
     atom:    7    charge:    3.2102    magn:    1.3014    constr:    0.0000
     atom:    8    charge:    3.2105    magn:    1.2988    constr:    0.0000
     atom:    9    charge:    3.2102    magn:    1.3014    constr:    0.0000
     atom:   10    charge:    3.1948    magn:    1.3012    constr:    0.0000
     atom:   11    charge:    3.1945    magn:    1.3012    constr:    0.0000
     atom:   12    charge:    3.1945    magn:    1.3012    constr:    0.0000
     atom:   13    charge:    3.2022    magn:    1.2938    constr:    0.0000
     atom:   14    charge:    3.2025    magn:    1.2976    constr:    0.0000
     atom:   15    charge:    3.2022    magn:    1.2938    constr:    0.0000
     atom:   16    charge:    3.2027    magn:    1.2948    constr:    0.0000
     atom:   17    charge:    3.2024    magn:    1.2945    constr:    0.0000
     atom:   18    charge:    3.2025    magn:    1.2945    constr:    0.0000
     atom:   19    charge:    3.2017    magn:    1.2952    constr:    0.0000
     atom:   20    charge:    3.2014    magn:    1.2956    constr:    0.0000
     atom:   21    charge:    3.2017    magn:    1.2951    constr:    0.0000
     atom:   22    charge:    3.2005    magn:    1.2982    constr:    0.0000
     atom:   23    charge:    3.2006    magn:    1.2975    constr:    0.0000
     atom:   24    charge:    3.2006    magn:    1.2975    constr:    0.0000
     atom:   25    charge:    3.1933    magn:    1.3031    constr:    0.0000
     atom:   26    charge:    3.1935    magn:    1.3030    constr:    0.0000
     atom:   27    charge:    3.1933    magn:    1.3032    constr:    0.0000
     atom:   28    charge:    3.2084    magn:    1.2992    constr:    0.0000
     atom:   29    charge:    3.2085    magn:    1.2991    constr:    0.0000
     atom:   30    charge:    3.2085    magn:    1.2991    constr:    0.0000
     atom:   31    charge:    3.2225    magn:    1.2979    constr:    0.0000
     atom:   32    charge:    3.2228    magn:    1.2967    constr:    0.0000
     atom:   33    charge:    3.2225    magn:    1.2979    constr:    0.0000
     atom:   34    charge:    3.2401    magn:    1.2955    constr:    0.0000
     atom:   35    charge:    3.2401    magn:    1.2954    constr:    0.0000
     atom:   36    charge:    3.2401    magn:    1.2954    constr:    0.0000
     atom:   37    charge:    2.0291    magn:    1.0981    constr:    0.0000

     total cpu time spent up to now is      622.3 secs

     total energy              =   -2916.83826458 Ry
     Harris-Foulkes estimate   =   -2917.46909338 Ry
     estimated scf accuracy    <      94.95853343 Ry

     total magnetization       =    75.57 Bohr mag/cell
     absolute magnetization    =    75.73 Bohr mag/cell

     iteration #  6     ecut=    44.10 Ry     beta=0.10
     Davidson diagonalization with overlap
     ethr =  1.07E-03,  avg # of iterations =  3.1

     negative rho (up, down):  5.401E-03 4.953E-03
 
     Adding external electric field

     Computed dipole along edir(3) : 
        Dipole               -0.2154 Ry au,         -0.5475 Debye
        Dipole field         -0.0002 Ry au
 
        Potential amp.        0.0315 Ry
        Total length         73.7482 bohr
 
 
     Adding external electric field

     Computed dipole along edir(3) : 
        Dipole               -0.2154 Ry au,         -0.5475 Debye
        Dipole field         -0.0002 Ry au
 
        Potential amp.        0.0315 Ry
        Total length         73.7482 bohr
 
 
     Magnetic moment per site:
     atom:    1    charge:    3.2453    magn:    1.2594    constr:    0.0000
     atom:    2    charge:    3.2430    magn:    1.2562    constr:    0.0000
     atom:    3    charge:    3.2453    magn:    1.2594    constr:    0.0000
     atom:    4    charge:    3.1978    magn:    1.2622    constr:    0.0000
     atom:    5    charge:    3.2171    magn:    1.2658    constr:    0.0000
     atom:    6    charge:    3.2171    magn:    1.2658    constr:    0.0000
     atom:    7    charge:    3.2095    magn:    1.2599    constr:    0.0000
     atom:    8    charge:    3.2069    magn:    1.2588    constr:    0.0000
     atom:    9    charge:    3.2095    magn:    1.2599    constr:    0.0000
     atom:   10    charge:    3.1962    magn:    1.2558    constr:    0.0000
     atom:   11    charge:    3.1947    magn:    1.2567    constr:    0.0000
     atom:   12    charge:    3.1947    magn:    1.2567    constr:    0.0000
     atom:   13    charge:    3.1960    magn:    1.2535    constr:    0.0000
     atom:   14    charge:    3.1947    magn:    1.2602    constr:    0.0000
     atom:   15    charge:    3.1960    magn:    1.2535    constr:    0.0000
     atom:   16    charge:    3.1977    magn:    1.2549    constr:    0.0000
     atom:   17    charge:    3.1971    magn:    1.2548    constr:    0.0000
     atom:   18    charge:    3.1971    magn:    1.2548    constr:    0.0000
     atom:   19    charge:    3.1971    magn:    1.2549    constr:    0.0000
     atom:   20    charge:    3.1967    magn:    1.2556    constr:    0.0000
     atom:   21    charge:    3.1971    magn:    1.2549    constr:    0.0000
     atom:   22    charge:    3.1951    magn:    1.2585    constr:    0.0000
     atom:   23    charge:    3.1949    magn:    1.2577    constr:    0.0000
     atom:   24    charge:    3.1949    magn:    1.2577    constr:    0.0000
     atom:   25    charge:    3.1955    magn:    1.2573    constr:    0.0000
     atom:   26    charge:    3.1954    magn:    1.2574    constr:    0.0000
     atom:   27    charge:    3.1955    magn:    1.2573    constr:    0.0000
     atom:   28    charge:    3.2082    magn:    1.2562    constr:    0.0000
     atom:   29    charge:    3.2084    magn:    1.2560    constr:    0.0000
     atom:   30    charge:    3.2084    magn:    1.2560    constr:    0.0000
     atom:   31    charge:    3.2176    magn:    1.2607    constr:    0.0000
     atom:   32    charge:    3.2173    magn:    1.2595    constr:    0.0000
     atom:   33    charge:    3.2176    magn:    1.2607    constr:    0.0000
     atom:   34    charge:    3.2445    magn:    1.2533    constr:    0.0000
     atom:   35    charge:    3.2442    magn:    1.2532    constr:    0.0000
     atom:   36    charge:    3.2442    magn:    1.2532    constr:    0.0000
     atom:   37    charge:    2.0423    magn:    1.0169    constr:    0.0000

     total cpu time spent up to now is      723.3 secs

     total energy              =   -2917.66783209 Ry
     Harris-Foulkes estimate   =   -2917.46391203 Ry
     estimated scf accuracy    <       4.53341544 Ry

     total magnetization       =    75.03 Bohr mag/cell
     absolute magnetization    =    75.23 Bohr mag/cell

     iteration #  7     ecut=    44.10 Ry     beta=0.10
     Davidson diagonalization with overlap
     ethr =  1.07E-03,  avg # of iterations =  1.5

     negative rho (up, down):  5.689E-03 5.540E-03
 
     Adding external electric field

     Computed dipole along edir(3) : 
        Dipole               -0.2082 Ry au,         -0.5293 Debye
        Dipole field         -0.0002 Ry au
 
        Potential amp.        0.0304 Ry
        Total length         73.7482 bohr
 
 
     Adding external electric field

     Computed dipole along edir(3) : 
        Dipole               -0.2082 Ry au,         -0.5293 Debye
        Dipole field         -0.0002 Ry au
 
        Potential amp.        0.0304 Ry
        Total length         73.7482 bohr
 
 
     Magnetic moment per site:
     atom:    1    charge:    3.2357    magn:    1.2482    constr:    0.0000
     atom:    2    charge:    3.2351    magn:    1.2425    constr:    0.0000
     atom:    3    charge:    3.2357    magn:    1.2482    constr:    0.0000
     atom:    4    charge:    3.2020    magn:    1.2402    constr:    0.0000
     atom:    5    charge:    3.2177    magn:    1.2460    constr:    0.0000
     atom:    6    charge:    3.2177    magn:    1.2460    constr:    0.0000
     atom:    7    charge:    3.2067    magn:    1.2421    constr:    0.0000
     atom:    8    charge:    3.2084    magn:    1.2375    constr:    0.0000
     atom:    9    charge:    3.2067    magn:    1.2421    constr:    0.0000
     atom:   10    charge:    3.1958    magn:    1.2364    constr:    0.0000
     atom:   11    charge:    3.1967    magn:    1.2357    constr:    0.0000
     atom:   12    charge:    3.1967    magn:    1.2357    constr:    0.0000
     atom:   13    charge:    3.1972    magn:    1.2322    constr:    0.0000
     atom:   14    charge:    3.1989    magn:    1.2376    constr:    0.0000
     atom:   15    charge:    3.1972    magn:    1.2322    constr:    0.0000
     atom:   16    charge:    3.1965    magn:    1.2353    constr:    0.0000
     atom:   17    charge:    3.1978    magn:    1.2339    constr:    0.0000
     atom:   18    charge:    3.1978    magn:    1.2339    constr:    0.0000
     atom:   19    charge:    3.1965    magn:    1.2350    constr:    0.0000
     atom:   20    charge:    3.1970    magn:    1.2350    constr:    0.0000
     atom:   21    charge:    3.1965    magn:    1.2350    constr:    0.0000
     atom:   22    charge:    3.1970    magn:    1.2374    constr:    0.0000
     atom:   23    charge:    3.1974    magn:    1.2361    constr:    0.0000
     atom:   24    charge:    3.1973    magn:    1.2361    constr:    0.0000
     atom:   25    charge:    3.1961    magn:    1.2373    constr:    0.0000
     atom:   26    charge:    3.1965    magn:    1.2370    constr:    0.0000
     atom:   27    charge:    3.1961    magn:    1.2373    constr:    0.0000
     atom:   28    charge:    3.2054    magn:    1.2380    constr:    0.0000
     atom:   29    charge:    3.2057    magn:    1.2375    constr:    0.0000
     atom:   30    charge:    3.2057    magn:    1.2374    constr:    0.0000
     atom:   31    charge:    3.2167    magn:    1.2415    constr:    0.0000
     atom:   32    charge:    3.2169    magn:    1.2396    constr:    0.0000
     atom:   33    charge:    3.2166    magn:    1.2415    constr:    0.0000
     atom:   34    charge:    3.2368    magn:    1.2392    constr:    0.0000
     atom:   35    charge:    3.2370    magn:    1.2387    constr:    0.0000
     atom:   36    charge:    3.2370    magn:    1.2387    constr:    0.0000
     atom:   37    charge:    2.0468    magn:    0.9761    constr:    0.0000

     total cpu time spent up to now is      818.5 secs

     total energy              =   -2917.78222454 Ry
     Harris-Foulkes estimate   =   -2917.73567855 Ry
     estimated scf accuracy    <       2.66221981 Ry

     total magnetization       =    73.85 Bohr mag/cell
     absolute magnetization    =    74.26 Bohr mag/cell

     iteration #  8     ecut=    44.10 Ry     beta=0.10
     Davidson diagonalization with overlap
     ethr =  8.07E-04,  avg # of iterations =  1.0

     negative rho (up, down):  4.962E-03 6.028E-03
 
     Adding external electric field

     Computed dipole along edir(3) : 
        Dipole               -0.2131 Ry au,         -0.5416 Debye
        Dipole field         -0.0002 Ry au
 
        Potential amp.        0.0311 Ry
        Total length         73.7482 bohr
 
 
     Adding external electric field

     Computed dipole along edir(3) : 
        Dipole               -0.2131 Ry au,         -0.5416 Debye
        Dipole field         -0.0002 Ry au
 
        Potential amp.        0.0311 Ry
        Total length         73.7482 bohr
 
 
     Magnetic moment per site:
     atom:    1    charge:    3.2314    magn:    1.2155    constr:    0.0000
     atom:    2    charge:    3.2251    magn:    1.2128    constr:    0.0000
     atom:    3    charge:    3.2313    magn:    1.2155    constr:    0.0000
     atom:    4    charge:    3.1960    magn:    1.2082    constr:    0.0000
     atom:    5    charge:    3.2130    magn:    1.2141    constr:    0.0000
     atom:    6    charge:    3.2130    magn:    1.2141    constr:    0.0000
     atom:    7    charge:    3.2073    magn:    1.2052    constr:    0.0000
     atom:    8    charge:    3.2056    magn:    1.2024    constr:    0.0000
     atom:    9    charge:    3.2073    magn:    1.2052    constr:    0.0000
     atom:   10    charge:    3.1969    magn:    1.1995    constr:    0.0000
     atom:   11    charge:    3.1955    magn:    1.2004    constr:    0.0000
     atom:   12    charge:    3.1955    magn:    1.2004    constr:    0.0000
     atom:   13    charge:    3.1976    magn:    1.1948    constr:    0.0000
     atom:   14    charge:    3.1973    magn:    1.2031    constr:    0.0000
     atom:   15    charge:    3.1976    magn:    1.1948    constr:    0.0000
     atom:   16    charge:    3.1989    magn:    1.1970    constr:    0.0000
     atom:   17    charge:    3.1980    magn:    1.1971    constr:    0.0000
     atom:   18    charge:    3.1980    magn:    1.1971    constr:    0.0000
     atom:   19    charge:    3.1988    magn:    1.1968    constr:    0.0000
     atom:   20    charge:    3.1974    magn:    1.1981    constr:    0.0000
     atom:   21    charge:    3.1988    magn:    1.1968    constr:    0.0000
     atom:   22    charge:    3.1984    magn:    1.2002    constr:    0.0000
     atom:   23    charge:    3.1972    magn:    1.1999    constr:    0.0000
     atom:   24    charge:    3.1972    magn:    1.1999    constr:    0.0000
     atom:   25    charge:    3.1967    magn:    1.2007    constr:    0.0000
     atom:   26    charge:    3.1960    magn:    1.2012    constr:    0.0000
     atom:   27    charge:    3.1967    magn:    1.2007    constr:    0.0000
     atom:   28    charge:    3.2069    magn:    1.1995    constr:    0.0000
     atom:   29    charge:    3.2062    magn:    1.1995    constr:    0.0000
     atom:   30    charge:    3.2062    magn:    1.1994    constr:    0.0000
     atom:   31    charge:    3.2120    magn:    1.2081    constr:    0.0000
     atom:   32    charge:    3.2115    magn:    1.2064    constr:    0.0000
     atom:   33    charge:    3.2120    magn:    1.2081    constr:    0.0000
     atom:   34    charge:    3.2263    magn:    1.2094    constr:    0.0000
     atom:   35    charge:    3.2256    magn:    1.2096    constr:    0.0000
     atom:   36    charge:    3.2256    magn:    1.2096    constr:    0.0000
     atom:   37    charge:    2.0513    magn:    0.9002    constr:    0.0000

     total cpu time spent up to now is      911.9 secs

     total energy              =   -2918.03061422 Ry
     Harris-Foulkes estimate   =   -2917.82756049 Ry
     estimated scf accuracy    <       0.69010679 Ry

     total magnetization       =    72.77 Bohr mag/cell
     absolute magnetization    =    73.34 Bohr mag/cell

     iteration #  9     ecut=    44.10 Ry     beta=0.10
     Davidson diagonalization with overlap
     ethr =  2.09E-04,  avg # of iterations = 10.6

     negative rho (up, down):  5.157E-03 7.259E-03
 
     Adding external electric field

     Computed dipole along edir(3) : 
        Dipole               -0.1785 Ry au,         -0.4536 Debye
        Dipole field         -0.0002 Ry au
 
        Potential amp.        0.0261 Ry
        Total length         73.7482 bohr
 
 
     Adding external electric field

     Computed dipole along edir(3) : 
        Dipole               -0.1785 Ry au,         -0.4536 Debye
        Dipole field         -0.0002 Ry au
 
        Potential amp.        0.0261 Ry
        Total length         73.7482 bohr
 
 
     Magnetic moment per site:
     atom:    1    charge:    3.2297    magn:    1.1643    constr:    0.0000
     atom:    2    charge:    3.2294    magn:    1.1547    constr:    0.0000
     atom:    3    charge:    3.2297    magn:    1.1643    constr:    0.0000
     atom:    4    charge:    3.1846    magn:    1.1613    constr:    0.0000
     atom:    5    charge:    3.2113    magn:    1.1631    constr:    0.0000
     atom:    6    charge:    3.2113    magn:    1.1631    constr:    0.0000
     atom:    7    charge:    3.2047    magn:    1.1529    constr:    0.0000
     atom:    8    charge:    3.2033    magn:    1.1488    constr:    0.0000
     atom:    9    charge:    3.2047    magn:    1.1529    constr:    0.0000
     atom:   10    charge:    3.1947    magn:    1.1458    constr:    0.0000
     atom:   11    charge:    3.1954    magn:    1.1451    constr:    0.0000
     atom:   12    charge:    3.1954    magn:    1.1451    constr:    0.0000
     atom:   13    charge:    3.1961    magn:    1.1397    constr:    0.0000
     atom:   14    charge:    3.1967    magn:    1.1493    constr:    0.0000
     atom:   15    charge:    3.1961    magn:    1.1397    constr:    0.0000
     atom:   16    charge:    3.1968    magn:    1.1444    constr:    0.0000
     atom:   17    charge:    3.1976    magn:    1.1431    constr:    0.0000
     atom:   18    charge:    3.1976    magn:    1.1431    constr:    0.0000
     atom:   19    charge:    3.1962    magn:    1.1445    constr:    0.0000
     atom:   20    charge:    3.1969    magn:    1.1438    constr:    0.0000
     atom:   21    charge:    3.1962    magn:    1.1444    constr:    0.0000
     atom:   22    charge:    3.1942    magn:    1.1486    constr:    0.0000
     atom:   23    charge:    3.1953    magn:    1.1464    constr:    0.0000
     atom:   24    charge:    3.1953    magn:    1.1464    constr:    0.0000
     atom:   25    charge:    3.1944    magn:    1.1471    constr:    0.0000
     atom:   26    charge:    3.1956    magn:    1.1465    constr:    0.0000
     atom:   27    charge:    3.1944    magn:    1.1471    constr:    0.0000
     atom:   28    charge:    3.2004    magn:    1.1491    constr:    0.0000
     atom:   29    charge:    3.2014    magn:    1.1472    constr:    0.0000
     atom:   30    charge:    3.2014    magn:    1.1472    constr:    0.0000
     atom:   31    charge:    3.2055    magn:    1.1588    constr:    0.0000
     atom:   32    charge:    3.2063    magn:    1.1556    constr:    0.0000
     atom:   33    charge:    3.2055    magn:    1.1588    constr:    0.0000
     atom:   34    charge:    3.2265    magn:    1.1538    constr:    0.0000
     atom:   35    charge:    3.2278    magn:    1.1523    constr:    0.0000
     atom:   36    charge:    3.2278    magn:    1.1523    constr:    0.0000
     atom:   37    charge:    2.0541    magn:    0.7887    constr:    0.0000

     total cpu time spent up to now is     1056.8 secs

     total energy              =   -2918.30203497 Ry
     Harris-Foulkes estimate   =   -2918.06213566 Ry
     estimated scf accuracy    <       1.06265680 Ry

     total magnetization       =    71.24 Bohr mag/cell
     absolute magnetization    =    72.19 Bohr mag/cell

     iteration # 10     ecut=    44.10 Ry     beta=0.10
     Davidson diagonalization with overlap
     ethr =  2.09E-04,  avg # of iterations =  1.2

     negative rho (up, down):  1.056E-02 1.129E-02
 
     Adding external electric field

     Computed dipole along edir(3) : 
        Dipole               -0.2069 Ry au,         -0.5260 Debye
        Dipole field         -0.0002 Ry au
 
        Potential amp.        0.0302 Ry
        Total length         73.7482 bohr
 
 
     Adding external electric field

     Computed dipole along edir(3) : 
        Dipole               -0.2069 Ry au,         -0.5260 Debye
        Dipole field         -0.0002 Ry au
 
        Potential amp.        0.0302 Ry
        Total length         73.7482 bohr
 
 
     Magnetic moment per site:
     atom:    1    charge:    3.2381    magn:    1.0782    constr:    0.0000
     atom:    2    charge:    3.2283    magn:    1.0742    constr:    0.0000
     atom:    3    charge:    3.2381    magn:    1.0782    constr:    0.0000
     atom:    4    charge:    3.1797    magn:    1.0825    constr:    0.0000
     atom:    5    charge:    3.2086    magn:    1.0868    constr:    0.0000
     atom:    6    charge:    3.2086    magn:    1.0868    constr:    0.0000
     atom:    7    charge:    3.1977    magn:    1.0765    constr:    0.0000
     atom:    8    charge:    3.1959    magn:    1.0711    constr:    0.0000
     atom:    9    charge:    3.1977    magn:    1.0765    constr:    0.0000
     atom:   10    charge:    3.1913    magn:    1.0645    constr:    0.0000
     atom:   11    charge:    3.1913    magn:    1.0642    constr:    0.0000
     atom:   12    charge:    3.1913    magn:    1.0642    constr:    0.0000
     atom:   13    charge:    3.1951    magn:    1.0551    constr:    0.0000
     atom:   14    charge:    3.1949    magn:    1.0682    constr:    0.0000
     atom:   15    charge:    3.1951    magn:    1.0551    constr:    0.0000
     atom:   16    charge:    3.1946    magn:    1.0630    constr:    0.0000
     atom:   17    charge:    3.1949    magn:    1.0622    constr:    0.0000
     atom:   18    charge:    3.1949    magn:    1.0622    constr:    0.0000
     atom:   19    charge:    3.1946    magn:    1.0627    constr:    0.0000
     atom:   20    charge:    3.1946    magn:    1.0619    constr:    0.0000
     atom:   21    charge:    3.1946    magn:    1.0627    constr:    0.0000
     atom:   22    charge:    3.1953    magn:    1.0646    constr:    0.0000
     atom:   23    charge:    3.1954    magn:    1.0630    constr:    0.0000
     atom:   24    charge:    3.1954    magn:    1.0630    constr:    0.0000
     atom:   25    charge:    3.1920    magn:    1.0649    constr:    0.0000
     atom:   26    charge:    3.1918    magn:    1.0658    constr:    0.0000
     atom:   27    charge:    3.1920    magn:    1.0649    constr:    0.0000
     atom:   28    charge:    3.1950    magn:    1.0699    constr:    0.0000
     atom:   29    charge:    3.1943    magn:    1.0684    constr:    0.0000
     atom:   30    charge:    3.1943    magn:    1.0684    constr:    0.0000
     atom:   31    charge:    3.2040    magn:    1.0790    constr:    0.0000
     atom:   32    charge:    3.2031    magn:    1.0764    constr:    0.0000
     atom:   33    charge:    3.2040    magn:    1.0790    constr:    0.0000
     atom:   34    charge:    3.2285    magn:    1.0697    constr:    0.0000
     atom:   35    charge:    3.2273    magn:    1.0702    constr:    0.0000
     atom:   36    charge:    3.2273    magn:    1.0702    constr:    0.0000
     atom:   37    charge:    2.0542    magn:    0.6178    constr:    0.0000

     total cpu time spent up to now is     1151.3 secs

     total energy              =   -2918.64222976 Ry
     Harris-Foulkes estimate   =   -2918.34860995 Ry
     estimated scf accuracy    <       0.63540913 Ry

     total magnetization       =    69.94 Bohr mag/cell
     absolute magnetization    =    71.61 Bohr mag/cell

     iteration # 11     ecut=    44.10 Ry     beta=0.10
     Davidson diagonalization with overlap
     ethr =  1.93E-04,  avg # of iterations =  5.6

     negative rho (up, down):  1.373E-02 1.374E-02
 
     Adding external electric field

     Computed dipole along edir(3) : 
        Dipole               -0.2192 Ry au,         -0.5571 Debye
        Dipole field         -0.0002 Ry au
 
        Potential amp.        0.0320 Ry
        Total length         73.7482 bohr
 
 
     Adding external electric field

     Computed dipole along edir(3) : 
        Dipole               -0.2192 Ry au,         -0.5571 Debye
        Dipole field         -0.0002 Ry au
 
        Potential amp.        0.0320 Ry
        Total length         73.7482 bohr
 
 
     Magnetic moment per site:
     atom:    1    charge:    3.2323    magn:    1.0377    constr:    0.0000
     atom:    2    charge:    3.2254    magn:    1.0309    constr:    0.0000
     atom:    3    charge:    3.2323    magn:    1.0378    constr:    0.0000
     atom:    4    charge:    3.1815    magn:    1.0355    constr:    0.0000
     atom:    5    charge:    3.2079    magn:    1.0445    constr:    0.0000
     atom:    6    charge:    3.2079    magn:    1.0444    constr:    0.0000
     atom:    7    charge:    3.1995    magn:    1.0302    constr:    0.0000
     atom:    8    charge:    3.1979    magn:    1.0241    constr:    0.0000
     atom:    9    charge:    3.1995    magn:    1.0302    constr:    0.0000
     atom:   10    charge:    3.1918    magn:    1.0186    constr:    0.0000
     atom:   11    charge:    3.1922    magn:    1.0177    constr:    0.0000
     atom:   12    charge:    3.1922    magn:    1.0177    constr:    0.0000
     atom:   13    charge:    3.1949    magn:    1.0074    constr:    0.0000
     atom:   14    charge:    3.1965    magn:    1.0210    constr:    0.0000
     atom:   15    charge:    3.1949    magn:    1.0074    constr:    0.0000
     atom:   16    charge:    3.1975    magn:    1.0138    constr:    0.0000
     atom:   17    charge:    3.1969    magn:    1.0136    constr:    0.0000
     atom:   18    charge:    3.1969    magn:    1.0137    constr:    0.0000
     atom:   19    charge:    3.1971    magn:    1.0137    constr:    0.0000
     atom:   20    charge:    3.1963    magn:    1.0130    constr:    0.0000
     atom:   21    charge:    3.1971    magn:    1.0137    constr:    0.0000
     atom:   22    charge:    3.1965    magn:    1.0174    constr:    0.0000
     atom:   23    charge:    3.1962    magn:    1.0160    constr:    0.0000
     atom:   24    charge:    3.1962    magn:    1.0160    constr:    0.0000
     atom:   25    charge:    3.1926    magn:    1.0185    constr:    0.0000
     atom:   26    charge:    3.1925    magn:    1.0199    constr:    0.0000
     atom:   27    charge:    3.1926    magn:    1.0185    constr:    0.0000
     atom:   28    charge:    3.1970    magn:    1.0230    constr:    0.0000
     atom:   29    charge:    3.1965    magn:    1.0209    constr:    0.0000
     atom:   30    charge:    3.1965    magn:    1.0209    constr:    0.0000
     atom:   31    charge:    3.2024    magn:    1.0359    constr:    0.0000
     atom:   32    charge:    3.2027    magn:    1.0322    constr:    0.0000
     atom:   33    charge:    3.2024    magn:    1.0359    constr:    0.0000
     atom:   34    charge:    3.2233    magn:    1.0275    constr:    0.0000
     atom:   35    charge:    3.2242    magn:    1.0267    constr:    0.0000
     atom:   36    charge:    3.2242    magn:    1.0267    constr:    0.0000
     atom:   37    charge:    2.0485    magn:    0.5165    constr:    0.0000

     total cpu time spent up to now is     1264.1 secs

     total energy              =   -2918.76388521 Ry
     Harris-Foulkes estimate   =   -2918.71660730 Ry
     estimated scf accuracy    <       3.29156108 Ry

     total magnetization       =    67.78 Bohr mag/cell
     absolute magnetization    =    70.87 Bohr mag/cell

     iteration # 12     ecut=    44.10 Ry     beta=0.10
     Davidson diagonalization with overlap
     ethr =  1.93E-04,  avg # of iterations =  1.0

     negative rho (up, down):  1.487E-02 1.494E-02
 
     Adding external electric field

     Computed dipole along edir(3) : 
        Dipole               -0.2253 Ry au,         -0.5726 Debye
        Dipole field         -0.0002 Ry au
 
        Potential amp.        0.0329 Ry
        Total length         73.7482 bohr
 
 
     Adding external electric field

     Computed dipole along edir(3) : 
        Dipole               -0.2253 Ry au,         -0.5726 Debye
        Dipole field         -0.0002 Ry au
 
        Potential amp.        0.0329 Ry
        Total length         73.7482 bohr
 
 
     Magnetic moment per site:
     atom:    1    charge:    3.2209    magn:    1.0179    constr:    0.0000
     atom:    2    charge:    3.2128    magn:    1.0124    constr:    0.0000
     atom:    3    charge:    3.2209    magn:    1.0179    constr:    0.0000
     atom:    4    charge:    3.1824    magn:    1.0049    constr:    0.0000
     atom:    5    charge:    3.2088    magn:    1.0185    constr:    0.0000
     atom:    6    charge:    3.2088    magn:    1.0185    constr:    0.0000
     atom:    7    charge:    3.2032    magn:    1.0009    constr:    0.0000
     atom:    8    charge:    3.2013    magn:    0.9952    constr:    0.0000
     atom:    9    charge:    3.2032    magn:    1.0009    constr:    0.0000
     atom:   10    charge:    3.1989    magn:    0.9875    constr:    0.0000
     atom:   11    charge:    3.1998    magn:    0.9858    constr:    0.0000
     atom:   12    charge:    3.1998    magn:    0.9858    constr:    0.0000
     atom:   13    charge:    3.2000    magn:    0.9746    constr:    0.0000
     atom:   14    charge:    3.2005    magn:    0.9899    constr:    0.0000
     atom:   15    charge:    3.2000    magn:    0.9746    constr:    0.0000
     atom:   16    charge:    3.1993    magn:    0.9832    constr:    0.0000
     atom:   17    charge:    3.1995    magn:    0.9824    constr:    0.0000
     atom:   18    charge:    3.1995    magn:    0.9824    constr:    0.0000
     atom:   19    charge:    3.1993    magn:    0.9828    constr:    0.0000
     atom:   20    charge:    3.1991    magn:    0.9810    constr:    0.0000
     atom:   21    charge:    3.1992    magn:    0.9827    constr:    0.0000
     atom:   22    charge:    3.2007    magn:    0.9866    constr:    0.0000
     atom:   23    charge:    3.2004    magn:    0.9854    constr:    0.0000
     atom:   24    charge:    3.2004    magn:    0.9854    constr:    0.0000
     atom:   25    charge:    3.2002    magn:    0.9864    constr:    0.0000
     atom:   26    charge:    3.2002    magn:    0.9880    constr:    0.0000
     atom:   27    charge:    3.2002    magn:    0.9864    constr:    0.0000
     atom:   28    charge:    3.2010    magn:    0.9936    constr:    0.0000
     atom:   29    charge:    3.2008    magn:    0.9910    constr:    0.0000
     atom:   30    charge:    3.2008    magn:    0.9910    constr:    0.0000
     atom:   31    charge:    3.2040    magn:    1.0084    constr:    0.0000
     atom:   32    charge:    3.2036    magn:    1.0057    constr:    0.0000
     atom:   33    charge:    3.2040    magn:    1.0084    constr:    0.0000
     atom:   34    charge:    3.2140    magn:    1.0058    constr:    0.0000
     atom:   35    charge:    3.2127    magn:    1.0070    constr:    0.0000
     atom:   36    charge:    3.2127    magn:    1.0070    constr:    0.0000
     atom:   37    charge:    2.0366    magn:    0.4433    constr:    0.0000

     total cpu time spent up to now is     1357.5 secs

     total energy              =   -2918.73314072 Ry
     Harris-Foulkes estimate   =   -2918.78415791 Ry
     estimated scf accuracy    <       1.31579599 Ry

     total magnetization       =    66.01 Bohr mag/cell
     absolute magnetization    =    70.06 Bohr mag/cell

     iteration # 13     ecut=    44.10 Ry     beta=0.10
     Davidson diagonalization with overlap
     ethr =  1.93E-04,  avg # of iterations =  1.0

     negative rho (up, down):  1.539E-02 1.571E-02
 
     Adding external electric field

     Computed dipole along edir(3) : 
        Dipole               -0.2536 Ry au,         -0.6445 Debye
        Dipole field         -0.0003 Ry au
 
        Potential amp.        0.0371 Ry
        Total length         73.7482 bohr
 
 
     Adding external electric field

     Computed dipole along edir(3) : 
        Dipole               -0.2536 Ry au,         -0.6445 Debye
        Dipole field         -0.0003 Ry au
 
        Potential amp.        0.0371 Ry
        Total length         73.7482 bohr
 
 
     Magnetic moment per site:
     atom:    1    charge:    3.2231    magn:    0.9977    constr:    0.0000
     atom:    2    charge:    3.2154    magn:    0.9930    constr:    0.0000
     atom:    3    charge:    3.2231    magn:    0.9977    constr:    0.0000
     atom:    4    charge:    3.1828    magn:    0.9811    constr:    0.0000
     atom:    5    charge:    3.2099    magn:    1.0003    constr:    0.0000
     atom:    6    charge:    3.2099    magn:    1.0002    constr:    0.0000
     atom:    7    charge:    3.2027    magn:    0.9824    constr:    0.0000
     atom:    8    charge:    3.2007    magn:    0.9775    constr:    0.0000
     atom:    9    charge:    3.2027    magn:    0.9824    constr:    0.0000
     atom:   10    charge:    3.1992    magn:    0.9677    constr:    0.0000
     atom:   11    charge:    3.1997    magn:    0.9655    constr:    0.0000
     atom:   12    charge:    3.1997    magn:    0.9655    constr:    0.0000
     atom:   13    charge:    3.2006    magn:    0.9524    constr:    0.0000
     atom:   14    charge:    3.2007    magn:    0.9687    constr:    0.0000
     atom:   15    charge:    3.2006    magn:    0.9524    constr:    0.0000
     atom:   16    charge:    3.2001    magn:    0.9620    constr:    0.0000
     atom:   17    charge:    3.1995    magn:    0.9619    constr:    0.0000
     atom:   18    charge:    3.1995    magn:    0.9619    constr:    0.0000
     atom:   19    charge:    3.1998    magn:    0.9616    constr:    0.0000
     atom:   20    charge:    3.1989    magn:    0.9600    constr:    0.0000
     atom:   21    charge:    3.1998    magn:    0.9616    constr:    0.0000
     atom:   22    charge:    3.2014    magn:    0.9657    constr:    0.0000
     atom:   23    charge:    3.2012    magn:    0.9645    constr:    0.0000
     atom:   24    charge:    3.2012    magn:    0.9645    constr:    0.0000
     atom:   25    charge:    3.2006    magn:    0.9656    constr:    0.0000
     atom:   26    charge:    3.2006    magn:    0.9673    constr:    0.0000
     atom:   27    charge:    3.2006    magn:    0.9656    constr:    0.0000
     atom:   28    charge:    3.2017    magn:    0.9741    constr:    0.0000
     atom:   29    charge:    3.2010    magn:    0.9722    constr:    0.0000
     atom:   30    charge:    3.2010    magn:    0.9722    constr:    0.0000
     atom:   31    charge:    3.2054    magn:    0.9892    constr:    0.0000
     atom:   32    charge:    3.2065    magn:    0.9860    constr:    0.0000
     atom:   33    charge:    3.2054    magn:    0.9892    constr:    0.0000
     atom:   34    charge:    3.2145    magn:    0.9872    constr:    0.0000
     atom:   35    charge:    3.2173    magn:    0.9852    constr:    0.0000
     atom:   36    charge:    3.2173    magn:    0.9852    constr:    0.0000
     atom:   37    charge:    2.0294    magn:    0.3881    constr:    0.0000

     total cpu time spent up to now is     1450.9 secs

     total energy              =   -2918.79974842 Ry
     Harris-Foulkes estimate   =   -2918.80041475 Ry
     estimated scf accuracy    <       0.43645900 Ry

     total magnetization       =    64.43 Bohr mag/cell
     absolute magnetization    =    69.16 Bohr mag/cell

     iteration # 14     ecut=    44.10 Ry     beta=0.10
     Davidson diagonalization with overlap
     ethr =  1.32E-04,  avg # of iterations =  1.0

     negative rho (up, down):  1.465E-02 1.542E-02
 
     Adding external electric field

     Computed dipole along edir(3) : 
        Dipole               -0.2609 Ry au,         -0.6630 Debye
        Dipole field         -0.0003 Ry au
 
        Potential amp.        0.0381 Ry
        Total length         73.7482 bohr
 
 
     Adding external electric field

     Computed dipole along edir(3) : 
        Dipole               -0.2609 Ry au,         -0.6630 Debye
        Dipole field         -0.0003 Ry au
 
        Potential amp.        0.0381 Ry
        Total length         73.7482 bohr
 
 
     Magnetic moment per site:
     atom:    1    charge:    3.2228    magn:    0.9933    constr:    0.0000
     atom:    2    charge:    3.2155    magn:    0.9889    constr:    0.0000
     atom:    3    charge:    3.2228    magn:    0.9933    constr:    0.0000
     atom:    4    charge:    3.1835    magn:    0.9737    constr:    0.0000
     atom:    5    charge:    3.2099    magn:    0.9958    constr:    0.0000
     atom:    6    charge:    3.2099    magn:    0.9958    constr:    0.0000
     atom:    7    charge:    3.2032    magn:    0.9772    constr:    0.0000
     atom:    8    charge:    3.2016    magn:    0.9722    constr:    0.0000
     atom:    9    charge:    3.2032    magn:    0.9772    constr:    0.0000
     atom:   10    charge:    3.1992    magn:    0.9624    constr:    0.0000
     atom:   11    charge:    3.2001    magn:    0.9596    constr:    0.0000
     atom:   12    charge:    3.2001    magn:    0.9596    constr:    0.0000
     atom:   13    charge:    3.2004    magn:    0.9464    constr:    0.0000
     atom:   14    charge:    3.2011    magn:    0.9625    constr:    0.0000
     atom:   15    charge:    3.2004    magn:    0.9464    constr:    0.0000
     atom:   16    charge:    3.2002    magn:    0.9561    constr:    0.0000
     atom:   17    charge:    3.2000    magn:    0.9558    constr:    0.0000
     atom:   18    charge:    3.2000    magn:    0.9558    constr:    0.0000
     atom:   19    charge:    3.1999    magn:    0.9557    constr:    0.0000
     atom:   20    charge:    3.1994    magn:    0.9539    constr:    0.0000
     atom:   21    charge:    3.1999    magn:    0.9557    constr:    0.0000
     atom:   22    charge:    3.2014    magn:    0.9601    constr:    0.0000
     atom:   23    charge:    3.2011    magn:    0.9589    constr:    0.0000
     atom:   24    charge:    3.2011    magn:    0.9589    constr:    0.0000
     atom:   25    charge:    3.2006    magn:    0.9600    constr:    0.0000
     atom:   26    charge:    3.2004    magn:    0.9618    constr:    0.0000
     atom:   27    charge:    3.2006    magn:    0.9600    constr:    0.0000
     atom:   28    charge:    3.2019    magn:    0.9688    constr:    0.0000
     atom:   29    charge:    3.2015    magn:    0.9669    constr:    0.0000
     atom:   30    charge:    3.2015    magn:    0.9669    constr:    0.0000
     atom:   31    charge:    3.2063    magn:    0.9838    constr:    0.0000
     atom:   32    charge:    3.2062    magn:    0.9816    constr:    0.0000
     atom:   33    charge:    3.2063    magn:    0.9838    constr:    0.0000
     atom:   34    charge:    3.2174    magn:    0.9804    constr:    0.0000
     atom:   35    charge:    3.2170    magn:    0.9811    constr:    0.0000
     atom:   36    charge:    3.2169    magn:    0.9811    constr:    0.0000
     atom:   37    charge:    2.0280    magn:    0.3711    constr:    0.0000

     total cpu time spent up to now is     1544.6 secs

     total energy              =   -2918.81339789 Ry
     Harris-Foulkes estimate   =   -2918.81180920 Ry
     estimated scf accuracy    <       0.04027318 Ry

     total magnetization       =    63.84 Bohr mag/cell
     absolute magnetization    =    69.14 Bohr mag/cell

     iteration # 15     ecut=    44.10 Ry     beta=0.10
     Davidson diagonalization with overlap
     ethr =  1.22E-05,  avg # of iterations =  9.5

     negative rho (up, down):  1.362E-02 1.520E-02
 
     Adding external electric field

     Computed dipole along edir(3) : 
        Dipole               -0.2748 Ry au,         -0.6985 Debye
        Dipole field         -0.0003 Ry au
 
        Potential amp.        0.0402 Ry
        Total length         73.7482 bohr
 
 
     Adding external electric field

     Computed dipole along edir(3) : 
        Dipole               -0.2748 Ry au,         -0.6985 Debye
        Dipole field         -0.0003 Ry au
 
        Potential amp.        0.0402 Ry
        Total length         73.7482 bohr
 
 
     Magnetic moment per site:
     atom:    1    charge:    3.2233    magn:    0.9917    constr:    0.0000
     atom:    2    charge:    3.2164    magn:    0.9884    constr:    0.0000
     atom:    3    charge:    3.2233    magn:    0.9917    constr:    0.0000
     atom:    4    charge:    3.1839    magn:    0.9646    constr:    0.0000
     atom:    5    charge:    3.2106    magn:    0.9929    constr:    0.0000
     atom:    6    charge:    3.2106    magn:    0.9929    constr:    0.0000
     atom:    7    charge:    3.2037    magn:    0.9738    constr:    0.0000
     atom:    8    charge:    3.2024    magn:    0.9695    constr:    0.0000
     atom:    9    charge:    3.2037    magn:    0.9738    constr:    0.0000
     atom:   10    charge:    3.1991    magn:    0.9584    constr:    0.0000
     atom:   11    charge:    3.2001    magn:    0.9547    constr:    0.0000
     atom:   12    charge:    3.2001    magn:    0.9547    constr:    0.0000
     atom:   13    charge:    3.1999    magn:    0.9410    constr:    0.0000
     atom:   14    charge:    3.2007    magn:    0.9572    constr:    0.0000
     atom:   15    charge:    3.1999    magn:    0.9410    constr:    0.0000
     atom:   16    charge:    3.1996    magn:    0.9516    constr:    0.0000
     atom:   17    charge:    3.1997    magn:    0.9513    constr:    0.0000
     atom:   18    charge:    3.1997    magn:    0.9513    constr:    0.0000
     atom:   19    charge:    3.1993    magn:    0.9511    constr:    0.0000
     atom:   20    charge:    3.1993    magn:    0.9490    constr:    0.0000
     atom:   21    charge:    3.1993    magn:    0.9511    constr:    0.0000
     atom:   22    charge:    3.2009    magn:    0.9558    constr:    0.0000
     atom:   23    charge:    3.2007    magn:    0.9544    constr:    0.0000
     atom:   24    charge:    3.2007    magn:    0.9544    constr:    0.0000
     atom:   25    charge:    3.2002    magn:    0.9555    constr:    0.0000
     atom:   26    charge:    3.2007    magn:    0.9566    constr:    0.0000
     atom:   27    charge:    3.2002    magn:    0.9555    constr:    0.0000
     atom:   28    charge:    3.2020    magn:    0.9652    constr:    0.0000
     atom:   29    charge:    3.2025    magn:    0.9633    constr:    0.0000
     atom:   30    charge:    3.2025    magn:    0.9633    constr:    0.0000
     atom:   31    charge:    3.2074    magn:    0.9799    constr:    0.0000
     atom:   32    charge:    3.2076    magn:    0.9782    constr:    0.0000
     atom:   33    charge:    3.2074    magn:    0.9799    constr:    0.0000
     atom:   34    charge:    3.2177    magn:    0.9788    constr:    0.0000
     atom:   35    charge:    3.2178    magn:    0.9790    constr:    0.0000
     atom:   36    charge:    3.2179    magn:    0.9790    constr:    0.0000
     atom:   37    charge:    2.0276    magn:    0.3482    constr:    0.0000

     total cpu time spent up to now is     1679.7 secs

     total energy              =   -2918.81730516 Ry
     Harris-Foulkes estimate   =   -2918.81491610 Ry
     estimated scf accuracy    <       0.01077009 Ry

     total magnetization       =    63.63 Bohr mag/cell
     absolute magnetization    =    69.11 Bohr mag/cell

     iteration # 16     ecut=    44.10 Ry     beta=0.10
     Davidson diagonalization with overlap
     c_bands:  1 eigenvalues not converged
     ethr =  3.26E-06,  avg # of iterations =  5.3

     negative rho (up, down):  1.275E-02 1.488E-02
 
     Adding external electric field

     Computed dipole along edir(3) : 
        Dipole               -0.2939 Ry au,         -0.7469 Debye
        Dipole field         -0.0003 Ry au
 
        Potential amp.        0.0429 Ry
        Total length         73.7482 bohr
 
 
     Adding external electric field

     Computed dipole along edir(3) : 
        Dipole               -0.2939 Ry au,         -0.7469 Debye
        Dipole field         -0.0003 Ry au
 
        Potential amp.        0.0429 Ry
        Total length         73.7482 bohr
 
 
     Magnetic moment per site:
     atom:    1    charge:    3.2233    magn:    0.9913    constr:    0.0000
     atom:    2    charge:    3.2170    magn:    0.9878    constr:    0.0000
     atom:    3    charge:    3.2233    magn:    0.9913    constr:    0.0000
     atom:    4    charge:    3.1840    magn:    0.9624    constr:    0.0000
     atom:    5    charge:    3.2109    magn:    0.9921    constr:    0.0000
     atom:    6    charge:    3.2109    magn:    0.9921    constr:    0.0000
     atom:    7    charge:    3.2039    magn:    0.9729    constr:    0.0000
     atom:    8    charge:    3.2024    magn:    0.9690    constr:    0.0000
     atom:    9    charge:    3.2039    magn:    0.9729    constr:    0.0000
     atom:   10    charge:    3.1995    magn:    0.9572    constr:    0.0000
     atom:   11    charge:    3.2003    magn:    0.9535    constr:    0.0000
     atom:   12    charge:    3.2003    magn:    0.9535    constr:    0.0000
     atom:   13    charge:    3.2004    magn:    0.9394    constr:    0.0000
     atom:   14    charge:    3.2007    magn:    0.9559    constr:    0.0000
     atom:   15    charge:    3.2004    magn:    0.9394    constr:    0.0000
     atom:   16    charge:    3.2000    magn:    0.9502    constr:    0.0000
     atom:   17    charge:    3.1996    magn:    0.9502    constr:    0.0000
     atom:   18    charge:    3.1996    magn:    0.9502    constr:    0.0000
     atom:   19    charge:    3.1996    magn:    0.9498    constr:    0.0000
     atom:   20    charge:    3.1990    magn:    0.9481    constr:    0.0000
     atom:   21    charge:    3.1996    magn:    0.9498    constr:    0.0000
     atom:   22    charge:    3.2012    magn:    0.9546    constr:    0.0000
     atom:   23    charge:    3.2007    magn:    0.9534    constr:    0.0000
     atom:   24    charge:    3.2007    magn:    0.9534    constr:    0.0000
     atom:   25    charge:    3.2007    magn:    0.9541    constr:    0.0000
     atom:   26    charge:    3.2005    magn:    0.9557    constr:    0.0000
     atom:   27    charge:    3.2007    magn:    0.9541    constr:    0.0000
     atom:   28    charge:    3.2025    magn:    0.9640    constr:    0.0000
     atom:   29    charge:    3.2021    magn:    0.9629    constr:    0.0000
     atom:   30    charge:    3.2021    magn:    0.9629    constr:    0.0000
     atom:   31    charge:    3.2073    magn:    0.9792    constr:    0.0000
     atom:   32    charge:    3.2074    magn:    0.9777    constr:    0.0000
     atom:   33    charge:    3.2073    magn:    0.9792    constr:    0.0000
     atom:   34    charge:    3.2180    magn:    0.9781    constr:    0.0000
     atom:   35    charge:    3.2183    magn:    0.9783    constr:    0.0000
     atom:   36    charge:    3.2183    magn:    0.9783    constr:    0.0000
     atom:   37    charge:    2.0265    magn:    0.3430    constr:    0.0000

     total cpu time spent up to now is     1794.3 secs

     total energy              =   -2918.81835234 Ry
     Harris-Foulkes estimate   =   -2918.81797354 Ry
     estimated scf accuracy    <       0.01280081 Ry

     total magnetization       =    63.44 Bohr mag/cell
     absolute magnetization    =    69.11 Bohr mag/cell

     iteration # 17     ecut=    44.10 Ry     beta=0.10
     Davidson diagonalization with overlap
     ethr =  3.26E-06,  avg # of iterations =  2.5

     negative rho (up, down):  1.189E-02 1.462E-02
 
     Adding external electric field

     Computed dipole along edir(3) : 
        Dipole               -0.2648 Ry au,         -0.6731 Debye
        Dipole field         -0.0003 Ry au
 
        Potential amp.        0.0387 Ry
        Total length         73.7482 bohr
 
 
     Adding external electric field

     Computed dipole along edir(3) : 
        Dipole               -0.2648 Ry au,         -0.6731 Debye
        Dipole field         -0.0003 Ry au
 
        Potential amp.        0.0387 Ry
        Total length         73.7482 bohr
 
 
     Magnetic moment per site:
     atom:    1    charge:    3.2233    magn:    0.9921    constr:    0.0000
     atom:    2    charge:    3.2171    magn:    0.9888    constr:    0.0000
     atom:    3    charge:    3.2233    magn:    0.9921    constr:    0.0000
     atom:    4    charge:    3.1843    magn:    0.9615    constr:    0.0000
     atom:    5    charge:    3.2108    magn:    0.9927    constr:    0.0000
     atom:    6    charge:    3.2108    magn:    0.9927    constr:    0.0000
     atom:    7    charge:    3.2039    magn:    0.9734    constr:    0.0000
     atom:    8    charge:    3.2025    magn:    0.9696    constr:    0.0000
     atom:    9    charge:    3.2039    magn:    0.9734    constr:    0.0000
     atom:   10    charge:    3.1996    magn:    0.9575    constr:    0.0000
     atom:   11    charge:    3.2003    magn:    0.9536    constr:    0.0000
     atom:   12    charge:    3.2003    magn:    0.9536    constr:    0.0000
     atom:   13    charge:    3.2003    magn:    0.9395    constr:    0.0000
     atom:   14    charge:    3.2007    magn:    0.9559    constr:    0.0000
     atom:   15    charge:    3.2003    magn:    0.9395    constr:    0.0000
     atom:   16    charge:    3.2000    magn:    0.9504    constr:    0.0000
     atom:   17    charge:    3.1996    magn:    0.9504    constr:    0.0000
     atom:   18    charge:    3.1996    magn:    0.9504    constr:    0.0000
     atom:   19    charge:    3.1996    magn:    0.9500    constr:    0.0000
     atom:   20    charge:    3.1990    magn:    0.9482    constr:    0.0000
     atom:   21    charge:    3.1996    magn:    0.9500    constr:    0.0000
     atom:   22    charge:    3.2011    magn:    0.9548    constr:    0.0000
     atom:   23    charge:    3.2007    magn:    0.9536    constr:    0.0000
     atom:   24    charge:    3.2007    magn:    0.9536    constr:    0.0000
     atom:   25    charge:    3.2008    magn:    0.9542    constr:    0.0000
     atom:   26    charge:    3.2006    magn:    0.9557    constr:    0.0000
     atom:   27    charge:    3.2008    magn:    0.9542    constr:    0.0000
     atom:   28    charge:    3.2026    magn:    0.9643    constr:    0.0000
     atom:   29    charge:    3.2023    magn:    0.9632    constr:    0.0000
     atom:   30    charge:    3.2023    magn:    0.9632    constr:    0.0000
     atom:   31    charge:    3.2074    magn:    0.9796    constr:    0.0000
     atom:   32    charge:    3.2075    magn:    0.9782    constr:    0.0000
     atom:   33    charge:    3.2074    magn:    0.9796    constr:    0.0000
     atom:   34    charge:    3.2182    magn:    0.9787    constr:    0.0000
     atom:   35    charge:    3.2184    magn:    0.9789    constr:    0.0000
     atom:   36    charge:    3.2184    magn:    0.9789    constr:    0.0000
     atom:   37    charge:    2.0262    magn:    0.3409    constr:    0.0000

     total cpu time spent up to now is     1892.8 secs

     total energy              =   -2918.81852688 Ry
     Harris-Foulkes estimate   =   -2918.81923459 Ry
     estimated scf accuracy    <       0.08130156 Ry

     total magnetization       =    63.40 Bohr mag/cell
     absolute magnetization    =    69.12 Bohr mag/cell

     iteration # 18     ecut=    44.10 Ry     beta=0.10
     Davidson diagonalization with overlap
     ethr =  3.26E-06,  avg # of iterations =  1.8

     negative rho (up, down):  1.102E-02 1.460E-02
 
     Adding external electric field

     Computed dipole along edir(3) : 
        Dipole               -0.2716 Ry au,         -0.6902 Debye
        Dipole field         -0.0003 Ry au
 
        Potential amp.        0.0397 Ry
        Total length         73.7482 bohr
 
 
     Adding external electric field

     Computed dipole along edir(3) : 
        Dipole               -0.2716 Ry au,         -0.6902 Debye
        Dipole field         -0.0003 Ry au
 
        Potential amp.        0.0397 Ry
        Total length         73.7482 bohr
 
 
     Magnetic moment per site:
     atom:    1    charge:    3.2239    magn:    0.9928    constr:    0.0000
     atom:    2    charge:    3.2182    magn:    0.9905    constr:    0.0000
     atom:    3    charge:    3.2239    magn:    0.9928    constr:    0.0000
     atom:    4    charge:    3.1844    magn:    0.9537    constr:    0.0000
     atom:    5    charge:    3.2119    magn:    0.9915    constr:    0.0000
     atom:    6    charge:    3.2119    magn:    0.9914    constr:    0.0000
     atom:    7    charge:    3.2044    magn:    0.9720    constr:    0.0000
     atom:    8    charge:    3.2033    magn:    0.9689    constr:    0.0000
     atom:    9    charge:    3.2044    magn:    0.9720    constr:    0.0000
     atom:   10    charge:    3.1990    magn:    0.9559    constr:    0.0000
     atom:   11    charge:    3.1997    magn:    0.9511    constr:    0.0000
     atom:   12    charge:    3.1997    magn:    0.9511    constr:    0.0000
     atom:   13    charge:    3.1999    magn:    0.9364    constr:    0.0000
     atom:   14    charge:    3.2003    magn:    0.9527    constr:    0.0000
     atom:   15    charge:    3.1999    magn:    0.9364    constr:    0.0000
     atom:   16    charge:    3.1995    magn:    0.9480    constr:    0.0000
     atom:   17    charge:    3.1992    magn:    0.9482    constr:    0.0000
[...]
    -2.4345  -2.3813  -2.3589  -2.3456  -2.3019  -2.2881  -2.2771  -2.2737
    -2.2569  -2.2433  -2.2281  -2.2096  -2.2059  -2.1981  -2.1687  -2.1576
    -2.1407  -2.1063  -2.0927  -2.0752  -2.0638  -2.0461  -2.0272  -2.0066
    -1.9877  -1.9640  -1.9540  -1.9301  -1.9093  -1.8918  -1.8645  -1.8429
    -1.8304  -1.8074  -1.7891  -1.7790  -1.7375  -1.6967  -1.6895  -1.6663
    -1.6458  -1.6299  -1.6206  -1.6088  -1.6001  -1.5936  -1.5487  -1.5238
    -1.5056  -1.4942  -1.4741  -1.4460  -1.4253  -1.4030  -1.3883  -1.3346
    -1.2213  -1.0848  -1.0126  -0.7951  -0.5662  -0.4427  -0.2299  -0.0187
     0.1655   0.2997   0.3381   0.3792   0.6919   1.0643   1.1851   1.3832
     1.6639   1.7212   1.8112   1.9639   2.0794   2.4410   2.6933   2.8806
     3.0844   3.1438   3.4592   3.5950   3.9065   4.1065   4.1725   4.2394
     4.2739   4.3840   4.5895   4.7323   4.7759   4.8098   4.9061   5.0103
     5.0747   5.1513   5.2368   5.3567   5.4363   5.4607   5.5176   5.5724
     5.6691   5.7605   5.7888   5.8332   5.8954   6.0359   6.0600   6.1087
     6.1612   6.2151   6.3120   6.3755   6.4436   6.4929   6.5189   6.5634
     6.6143   6.7237   6.7660   6.8485   6.8871   6.9608   7.0187   7.0341
     7.0883

 ------ SPIN DOWN ----------


          k = 0.0000 0.0000 0.0000 ( 62705 PWs)   bands (ev):

   -19.2797  -9.1445  -7.9073  -6.6253  -6.6138  -6.2635  -5.9468  -5.8495
    -5.7220  -5.6450  -5.3973  -5.3681  -5.1915  -4.7550  -4.6927  -4.6258
    -4.4009  -4.3904  -4.3808  -4.3605  -4.3382  -4.2571  -4.2243  -4.0344
    -3.9810  -3.9705  -3.9560  -3.8986  -3.8409  -3.7094  -3.6547  -3.6050
    -3.5601  -3.5551  -3.5332  -3.5204  -3.4752  -3.4627  -3.4515  -3.3079
    -3.2813  -3.2667  -3.2565  -3.1176  -3.0818  -3.0580  -3.0305  -3.0153
    -2.9361  -2.8050  -2.7401  -2.7131  -2.7052  -2.6970  -2.6840  -2.6277
    -2.6103  -2.5977  -2.5533  -2.5436  -2.5082  -2.4907  -2.4871  -2.4529
    -2.3790  -2.3467  -2.3336  -2.3257  -2.3124  -2.2697  -2.2278  -2.1999
    -2.1582  -2.1415  -2.1107  -2.0883  -2.0717  -2.0468  -2.0424  -1.9958
    -1.9912  -1.9616  -1.9162  -1.8895  -1.8859  -1.8571  -1.8134  -1.7937
    -1.7254  -1.6872  -1.6670  -1.6283  -1.6163  -1.6100  -1.6007  -1.5985
    -1.5891  -1.5688  -1.5610  -1.5146  -1.5071  -1.4920  -1.4908  -1.4364
    -1.4220  -1.4136  -1.4101  -1.3837  -1.3288  -1.3268  -1.3154  -1.2785
    -1.2713  -1.1963  -1.1739  -1.1433  -1.1336  -1.1041  -1.0735  -1.0564
    -0.9789  -0.9433  -0.9377  -0.9219  -0.8893  -0.8757  -0.8171  -0.8024
    -0.7548  -0.7209  -0.6868  -0.6780  -0.6554  -0.6345  -0.6251  -0.6212
    -0.5767  -0.4954  -0.4888  -0.4499  -0.4338  -0.4109  -0.3794  -0.3735
    -0.3547  -0.3423  -0.3071  -0.2977  -0.2920  -0.2870  -0.2316  -0.2247
    -0.1993  -0.1880  -0.1677  -0.1632  -0.1550  -0.1539  -0.1174  -0.0893
    -0.0851  -0.0514  -0.0503  -0.0461  -0.0367  -0.0135   0.0032   0.0208
     0.0339   0.0784   0.1075   0.1470   0.1553   0.1635   0.1814   0.1998
     0.2030   0.2437   0.2467   0.2602   0.2608   0.2796   0.2995   0.3151
     0.3198   0.3318   0.3390   0.3627   0.3949   0.3957   0.4885   0.5059
     0.5436   0.5509   0.6086   0.6286   0.8505   1.0006   1.1875   1.3770
     1.4690   1.5016   1.5514   1.6164   1.6370   2.0075   2.0637   2.1108
     2.1797   2.2673   2.3089   2.3461   2.8201   2.9597   3.1053   3.2518
     3.2625   3.3658   3.4293   3.4544   3.5049   3.7396   3.8104   3.9208
     4.0852   4.3403   4.5296   4.6328   4.7953   4.9940   5.0376   5.2714
     5.2739   5.3747   5.5747   5.6280   5.7404   5.7650   5.9987   6.0196
     6.0601   6.1198   6.1446   6.2233   6.2997   6.4967   6.5582   6.5886
     6.6374   6.6688   6.7262   6.8095   6.8984   7.0541   7.0692   7.1318
     7.2078   7.2555   7.2796   7.3271   7.4125   7.4497   7.4573   7.4964
     7.5254

          k = 0.0000 0.0440 0.0000 ( 62728 PWs)   bands (ev):

   -19.2796  -8.8354  -7.9473  -7.6203  -6.8251  -6.0682  -5.7459  -5.6842
    -5.4546  -5.3786  -5.2496  -5.0826  -4.9671  -4.8150  -4.7954  -4.5579
    -4.5268  -4.4861  -4.3623  -4.3404  -4.3309  -4.1919  -4.1632  -4.1075
    -4.0102  -3.9365  -3.9237  -3.8466  -3.8288  -3.7772  -3.7554  -3.7041
    -3.6746  -3.6573  -3.6407  -3.6061  -3.5391  -3.4845  -3.4764  -3.3690
    -3.3095  -3.2541  -3.2024  -3.1906  -3.1238  -3.0949  -2.9961  -2.9537
    -2.9343  -2.8773  -2.7691  -2.7461  -2.7197  -2.7128  -2.6538  -2.6382
    -2.6331  -2.6004  -2.5686  -2.5637  -2.5193  -2.4920  -2.4445  -2.4287
    -2.4124  -2.3727  -2.3364  -2.2989  -2.2816  -2.2492  -2.2145  -2.2000
    -2.1700  -2.1406  -2.1038  -2.0872  -2.0736  -2.0508  -2.0100  -1.9868
    -1.9529  -1.9431  -1.9276  -1.9243  -1.8906  -1.8596  -1.8408  -1.8208
    -1.7739  -1.7651  -1.7293  -1.7113  -1.7066  -1.6866  -1.6677  -1.6341
    -1.5892  -1.5587  -1.5521  -1.5388  -1.5096  -1.4781  -1.4736  -1.4539
    -1.4198  -1.4032  -1.3675  -1.3390  -1.3173  -1.3012  -1.2759  -1.2209
    -1.2090  -1.1919  -1.1539  -1.1238  -1.0935  -1.0750  -1.0647  -1.0532
    -1.0388  -0.9889  -0.9874  -0.9818  -0.9486  -0.9255  -0.8771  -0.8711
    -0.8138  -0.8094  -0.7950  -0.7216  -0.6989  -0.6612  -0.6475  -0.6205
    -0.6015  -0.5821  -0.5723  -0.5196  -0.5058  -0.4693  -0.4143  -0.4026
    -0.3838  -0.3697  -0.3605  -0.3533  -0.3462  -0.3270  -0.3196  -0.2733
    -0.2479  -0.2291  -0.2080  -0.1938  -0.1734  -0.1548  -0.1308  -0.0532
    -0.0340  -0.0215  -0.0091   0.0190   0.0348   0.0549   0.1236   0.1368
     0.1494   0.1688   0.1736   0.1971   0.2066   0.2212   0.2414   0.2498
     0.2700   0.2976   0.3014   0.3146   0.3292   0.3350   0.3495   0.3661
     0.3901   0.4054   0.4217   0.4285   0.4572   0.5174   0.5596   0.6231
     0.7804   0.9024   0.9741   0.9894   1.0029   1.0204   1.1633   1.3072
     1.4874   1.5487   1.5929   1.7362   1.8597   2.0752   2.2331   2.2613
     2.3893   2.4537   2.5603   2.5786   2.7148   2.7277   2.7735   2.9563
     3.0730   3.2477   3.4061   3.4982   3.6775   3.7270   3.7812   3.8335
     3.9841   4.0176   4.1331   4.2559   4.3252   4.4823   4.6319   4.6401
     4.7779   5.0125   5.1741   5.1936   5.2782   5.4532   5.5196   5.6348
     5.7781   6.0470   6.2326   6.3974   6.4422   6.4960   6.6122   6.7494
     6.8248   7.0461   7.1430   7.2087   7.2352   7.2455   7.3594   7.4174
     7.5064   7.5401   7.5497   7.5879   7.7004   7.7336   7.7631   7.7890
     7.8168

          k = 0.0538 0.0000 0.0000 ( 62649 PWs)   bands (ev):

   -19.2794  -8.6833  -7.5409  -7.3273  -6.3855  -6.3101  -6.2865  -5.9135
    -5.8792  -5.6173  -5.4476  -5.3346  -5.3128  -5.2324  -5.1187  -4.9279
    -4.7420  -4.6925  -4.6033  -4.5258  -4.2215  -4.1614  -4.1316  -3.9179
    -3.9070  -3.8416  -3.7935  -3.7905  -3.7005  -3.5421  -3.4616  -3.4395
    -3.4252  -3.4193  -3.3895  -3.3835  -3.3734  -3.3494  -3.3177  -3.2713
    -3.2681  -3.2242  -3.1654  -3.1499  -3.1440  -3.1012  -3.0270  -2.9890
    -2.9477  -2.9084  -2.8892  -2.8289  -2.8052  -2.7604  -2.7302  -2.6580
    -2.6121  -2.5910  -2.5659  -2.5366  -2.4904  -2.4897  -2.4763  -2.4365
    -2.4284  -2.3605  -2.3559  -2.3231  -2.2943  -2.2343  -2.2059  -2.1534
    -2.1338  -2.1205  -2.0668  -2.0493  -2.0130  -1.9951  -1.9789  -1.9270
    -1.8919  -1.8509  -1.8384  -1.8151  -1.7869  -1.7664  -1.7574  -1.7298
    -1.7175  -1.6892  -1.6494  -1.6478  -1.6312  -1.6148  -1.5999  -1.5806
    -1.5678  -1.5402  -1.5379  -1.5090  -1.5075  -1.4922  -1.4806  -1.4734
    -1.4306  -1.4272  -1.4029  -1.3832  -1.3829  -1.3637  -1.3228  -1.2735
    -1.2502  -1.2289  -1.1942  -1.1312  -1.1305  -1.0875  -1.0817  -1.0264
    -0.9753  -0.9747  -0.9340  -0.8831  -0.8680  -0.8480  -0.8077  -0.8056
    -0.7210  -0.7161  -0.6794  -0.6474  -0.5981  -0.5573  -0.5280  -0.5156
    -0.5002  -0.4929  -0.4651  -0.4442  -0.4271  -0.4012  -0.3763  -0.3725
    -0.3499  -0.3395  -0.3262  -0.3184  -0.2966  -0.2873  -0.2415  -0.2352
    -0.2122  -0.1954  -0.1858  -0.1732  -0.1366  -0.1218  -0.0899  -0.0871
    -0.0768  -0.0433  -0.0357  -0.0238  -0.0099   0.0052   0.0218   0.0423
     0.0743   0.0897   0.1084   0.1154   0.1190   0.1438   0.1715   0.1733
     0.1875   0.2074   0.2456   0.2637   0.2682   0.2825   0.2988   0.3057
     0.3159   0.3274   0.3489   0.3502   0.3747   0.3764   0.4044   0.4319
     0.4529   0.4613   0.4726   0.4872   0.5447   0.5743   0.6925   0.7165
     0.8316   0.9228   0.9817   1.1686   1.4310   1.6339   2.0747   2.1855
     2.2963   2.6524   3.1161   3.1498   3.5012   3.6399   3.8245   3.8750
     3.9593   3.9742   4.0500   4.0625   4.1907   4.3624   4.4608   4.6470
     4.6628   4.7373   4.8311   4.9125   5.0938   5.1567   5.2673   5.3354
     5.3893   5.4592   5.4979   5.6263   5.7425   5.7780   5.9167   5.9372
     6.0051   6.1320   6.1847   6.2217   6.3404   6.4409   6.4740   6.5455
     6.5480   6.5803   6.6397   6.6602   6.7380   6.7752   6.9138   6.9628
     6.9781   6.9860   7.0488   7.1533   7.1967   7.2136   7.2232   7.2883
     7.4578

          k = 0.0538 0.0440 0.0000 ( 62686 PWs)   bands (ev):

   -19.2793  -8.3831  -7.5302  -7.2678  -7.0512  -6.5366  -6.3028  -6.1596
    -5.8317  -5.6648  -5.5158  -5.2684  -5.2019  -4.9487  -4.7825  -4.7073
    -4.5771  -4.5201  -4.4376  -4.3778  -4.3500  -4.2140  -4.0823  -4.0295
    -3.9644  -3.9029  -3.8664  -3.8030  -3.7150  -3.6718  -3.6512  -3.6279
    -3.5854  -3.5559  -3.4912  -3.4609  -3.4438  -3.3829  -3.2746  -3.2247
    -3.1950  -3.1485  -3.1321  -3.1122  -3.0809  -3.0433  -3.0045  -2.9791
    -2.9431  -2.8953  -2.8642  -2.8228  -2.7948  -2.7526  -2.7222  -2.6805
    -2.6623  -2.6034  -2.5533  -2.5295  -2.5155  -2.4627  -2.4456  -2.4031
    -2.3527  -2.3323  -2.3197  -2.2878  -2.2640  -2.2486  -2.2077  -2.1910
    -2.1562  -2.1283  -2.0895  -2.0617  -2.0417  -2.0237  -1.9974  -1.9834
    -1.9227  -1.9113  -1.8852  -1.8722  -1.8371  -1.8198  -1.7971  -1.7829
    -1.7612  -1.7357  -1.7092  -1.6866  -1.6557  -1.6170  -1.5842  -1.5609
    -1.5466  -1.5336  -1.5067  -1.4849  -1.4517  -1.4362  -1.4301  -1.4175
    -1.3871  -1.3816  -1.3746  -1.3358  -1.3176  -1.3007  -1.2734  -1.2583
    -1.2439  -1.2182  -1.1765  -1.1547  -1.1275  -1.1010  -1.0725  -1.0523
    -1.0246  -1.0081  -0.9875  -0.9610  -0.9194  -0.9068  -0.8764  -0.8639
    -0.8386  -0.8085  -0.7636  -0.7450  -0.7302  -0.6855  -0.6385  -0.5969
    -0.5847  -0.5412  -0.5008  -0.4808  -0.4509  -0.4473  -0.4205  -0.4143
    -0.3784  -0.3619  -0.3471  -0.3269  -0.3043  -0.2775  -0.2535  -0.2357
    -0.2159  -0.1997  -0.1832  -0.1654  -0.1450  -0.1319  -0.0978  -0.0882
    -0.0664  -0.0470  -0.0363  -0.0116   0.0101   0.0431   0.0659   0.0808
     0.0912   0.1294   0.1461   0.1667   0.1855   0.2288   0.2382   0.2718
     0.2849   0.2983   0.3129   0.3193   0.3328   0.3377   0.3561   0.3772
     0.3905   0.4060   0.4134   0.4395   0.4487   0.4623   0.4745   0.4861
     0.4987   0.5348   0.6229   0.6876   0.8096   0.9258   1.0470   1.1437
     1.2098   1.2622   1.3667   1.4351   1.5379   1.9171   1.9536   2.1848
     2.4286   2.5790   2.6812   2.7632   2.8171   3.1466   3.3494   3.4846
     3.6445   3.6731   3.8294   3.9621   4.1209   4.1665   4.2778   4.4600
     4.5929   4.6929   4.7393   4.7759   4.9412   4.9695   5.0315   5.1329
     5.1804   5.2971   5.4041   5.4809   5.4839   5.5578   5.5829   5.6758
     5.7629   5.8078   5.8757   6.0154   6.0838   6.1863   6.2431   6.3375
     6.3821   6.4689   6.5120   6.5698   6.6034   6.6539   6.7844   6.8359
     6.8565   6.9665   7.0136   7.0643   7.1383   7.1780   7.2432   7.3177
     7.4276

          k = 0.0538-0.0440 0.0000 ( 62686 PWs)   bands (ev):

   -19.2793  -8.3831  -7.5302  -7.2678  -7.0512  -6.5366  -6.3028  -6.1597
    -5.8313  -5.6650  -5.5161  -5.2683  -5.2018  -4.9487  -4.7826  -4.7073
    -4.5771  -4.5200  -4.4376  -4.3777  -4.3500  -4.2141  -4.0823  -4.0296
    -3.9643  -3.9029  -3.8665  -3.8029  -3.7150  -3.6717  -3.6512  -3.6281
    -3.5854  -3.5559  -3.4913  -3.4609  -3.4438  -3.3829  -3.2746  -3.2248
    -3.1949  -3.1484  -3.1321  -3.1124  -3.0808  -3.0433  -3.0045  -2.9791
    -2.9432  -2.8953  -2.8642  -2.8227  -2.7948  -2.7526  -2.7223  -2.6805
    -2.6623  -2.6034  -2.5532  -2.5295  -2.5156  -2.4626  -2.4457  -2.4032
    -2.3528  -2.3323  -2.3196  -2.2877  -2.2641  -2.2486  -2.2077  -2.1910
    -2.1563  -2.1283  -2.0894  -2.0618  -2.0418  -2.0237  -1.9973  -1.9833
    -1.9227  -1.9113  -1.8853  -1.8721  -1.8371  -1.8198  -1.7971  -1.7829
    -1.7610  -1.7358  -1.7092  -1.6867  -1.6557  -1.6170  -1.5842  -1.5609
    -1.5466  -1.5335  -1.5067  -1.4851  -1.4517  -1.4363  -1.4301  -1.4176
    -1.3870  -1.3816  -1.3747  -1.3359  -1.3176  -1.3007  -1.2734  -1.2583
    -1.2439  -1.2182  -1.1764  -1.1546  -1.1276  -1.1009  -1.0724  -1.0522
    -1.0247  -1.0082  -0.9874  -0.9610  -0.9195  -0.9068  -0.8763  -0.8640
    -0.8386  -0.8085  -0.7636  -0.7451  -0.7301  -0.6854  -0.6385  -0.5970
    -0.5846  -0.5412  -0.5009  -0.4807  -0.4508  -0.4473  -0.4205  -0.4143
    -0.3784  -0.3619  -0.3470  -0.3270  -0.3043  -0.2774  -0.2535  -0.2357
    -0.2159  -0.1997  -0.1832  -0.1653  -0.1450  -0.1319  -0.0978  -0.0882
    -0.0664  -0.0470  -0.0363  -0.0116   0.0100   0.0430   0.0659   0.0808
     0.0912   0.1294   0.1461   0.1667   0.1855   0.2289   0.2382   0.2719
     0.2848   0.2983   0.3129   0.3193   0.3328   0.3376   0.3561   0.3772
     0.3905   0.4060   0.4134   0.4395   0.4487   0.4622   0.4745   0.4861
     0.4987   0.5348   0.6229   0.6876   0.8096   0.9257   1.0471   1.1437
     1.2097   1.2622   1.3668   1.4351   1.5378   1.9171   1.9536   2.1848
     2.4285   2.5790   2.6812   2.7632   2.8173   3.1466   3.3493   3.4850
     3.6444   3.6729   3.8296   3.9617   4.1209   4.1667   4.2778   4.4602
     4.5928   4.6930   4.7387   4.7762   4.9412   4.9694   5.0316   5.1328
     5.1804   5.2971   5.4043   5.4809   5.4840   5.5577   5.5828   5.6765
     5.7627   5.8081   5.8757   6.0154   6.0837   6.1860   6.2433   6.3373
     6.3820   6.4687   6.5121   6.5698   6.6033   6.6541   6.7847   6.8359
     6.8559   6.9673   7.0130   7.0641   7.1385   7.1780   7.2432   7.3176
     7.4277

     the Fermi energy is    -0.6532 ev

!    total energy              =   -2918.96203465 Ry
     Harris-Foulkes estimate   =   -2918.96171976 Ry
     estimated scf accuracy    <       0.00000027 Ry

     The total energy is the sum of the following terms:

     one-electron contribution =  -62263.00595305 Ry
     hartree contribution      =   31430.55265351 Ry
     xc contribution           =   -1336.29937869 Ry
     ewald contribution        =   29249.89638176 Ry
     electric field correction =       0.00005516 Ry
     smearing contrib. (-TS)   =      -0.10579335 Ry

     total magnetization       =    62.59 Bohr mag/cell
     absolute magnetization    =    69.03 Bohr mag/cell

     convergence has been achieved in  35 iterations

     Forces acting on atoms (Ry/au):


     negative rho (up, down):  6.737E-03 1.896E-02
     atom    1 type  1   force =     0.00094013    0.00134535    0.00038786
     atom    2 type  1   force =     0.00071831   -0.00021206    0.00073671
     atom    3 type  1   force =     0.00069081   -0.00075801    0.00070825
     atom    4 type  1   force =     0.00086664    0.00000927   -0.00148422
     atom    5 type  1   force =     0.00040658    0.00056701    0.00042184
     atom    6 type  1   force =     0.00038562   -0.00059949    0.00034689
     atom    7 type  1   force =     0.00036301    0.00020160    0.00073337
     atom    8 type  1   force =     0.00006763   -0.00005688   -0.00007105
     atom    9 type  1   force =     0.00044972   -0.00014346    0.00069342
     atom   10 type  1   force =     0.00099260    0.00007721    0.00056582
     atom   11 type  1   force =     0.00094340    0.00025402    0.00132231
     atom   12 type  1   force =     0.00088089   -0.00033184    0.00121166
     atom   13 type  1   force =     0.00054158    0.00030586    0.00005613
     atom   14 type  1   force =     0.00100620   -0.00001028   -0.00012937
     atom   15 type  1   force =     0.00051009   -0.00029759    0.00010869
     atom   16 type  1   force =     0.00096110    0.00005967   -0.00018555
     atom   17 type  1   force =     0.00039365    0.00006032   -0.00016717
     atom   18 type  1   force =     0.00043354   -0.00012517   -0.00017839
     atom   19 type  1   force =    -0.00295949   -0.00139979   -0.00679815
     atom   20 type  1   force =    -0.00196451    0.00002411   -0.00902233
     atom   21 type  1   force =    -0.00298186    0.00137311   -0.00684282
     atom   22 type  1   force =    -0.00233283   -0.00002249   -0.00909181
     atom   23 type  1   force =    -0.00176665   -0.00183814   -0.00883540
     atom   24 type  1   force =    -0.00177814    0.00186042   -0.00885101
     atom   25 type  1   force =     0.00384756   -0.00005247   -0.01558572
     atom   26 type  1   force =     0.00375411    0.00002654   -0.01516700
     atom   27 type  1   force =     0.00384911    0.00002766   -0.01560706
     atom   28 type  1   force =     0.00082152   -0.00002124   -0.00905419
     atom   29 type  1   force =     0.00106014   -0.00021915   -0.01030685
     atom   30 type  1   force =     0.00106486    0.00023838   -0.01030588
     atom   31 type  1   force =    -0.00787482    0.00013699    0.01304928
     atom   32 type  1   force =    -0.00787890    0.00001654    0.01208264
     atom   33 type  1   force =    -0.00787491   -0.00015553    0.01304953
     atom   34 type  1   force =     0.00386563   -0.00000672    0.02711073
     atom   35 type  1   force =     0.00371262    0.00036301    0.02745765
     atom   36 type  1   force =     0.00370890   -0.00034302    0.02745529
     atom   37 type  2   force =     0.00017614   -0.00035376    0.00018590

     Total force =     0.067039     Total SCF correction =     0.000913
 !ASE

     Writing output data file calc.save
 
     init_run     :     41.66s CPU     48.34s WALL (       1 calls)
     electrons    :  58127.93s CPU  67326.41s WALL (      18 calls)
     update_pot   :     72.71s CPU     77.05s WALL (      17 calls)
     forces       :    910.94s CPU    946.92s WALL (      18 calls)

     Called by init_run:
     wfcinit      :     26.54s CPU     32.40s WALL (       1 calls)
     potinit      :      1.72s CPU      1.85s WALL (       1 calls)

     Called by electrons:
     c_bands      :  39551.28s CPU  46646.13s WALL (     615 calls)
     sum_band     :  12557.70s CPU  14198.46s WALL (     615 calls)
     v_of_rho     :    380.76s CPU    444.99s WALL (     633 calls)
     newd         :   5676.00s CPU   6058.05s WALL (     633 calls)
     mix_rho      :     91.57s CPU    110.06s WALL (     615 calls)

     Called by c_bands:
     init_us_2    :    158.81s CPU    173.73s WALL (   12490 calls)
     cegterg      :  38674.50s CPU  45729.64s WALL (    6150 calls)

     Called by *egterg:
     h_psi        :  19499.14s CPU  25015.19s WALL (   25190 calls)
     s_psi        :   2647.66s CPU   2746.50s WALL (   25190 calls)
     g_psi        :     94.81s CPU     97.49s WALL (   19030 calls)
     cdiaghg      :   6666.62s CPU   6846.30s WALL (   25010 calls)

     Called by h_psi:
     add_vuspsi   :   2682.03s CPU   2775.50s WALL (   25190 calls)

     General routines
     calbec       :   4092.44s CPU   4214.83s WALL (   31520 calls)
     fft          :    404.11s CPU    471.85s WALL (   19785 calls)
     ffts         :      4.71s CPU      6.50s WALL (    2496 calls)
     fftw         :  10045.35s CPU  16481.35s WALL ( 8796054 calls)
     interpolate  :     49.57s CPU     67.84s WALL (    2496 calls)
     davcio       :      0.03s CPU      1.31s WALL (      10 calls)
 
     Parallel routines
     fft_scatter  :   5861.02s CPU   9599.30s WALL ( 8818335 calls)
 
     PWSCF        :    16h28m CPU       19h 2m WALL

 
   This run was terminated on:   8:28:59  21Apr2018            

=------------------------------------------------------------------------------=
   JOB DONE.
=------------------------------------------------------------------------------=
