  python dir          : /home/vossj/suncat/lib/python2.7/site-packages/espresso
  espresso dir        : /home/vossj/suncat/esdld/espresso-dynpy-beef/bin
  pseudo dir          : /home/alatimer/bin/psp/esp_psp_w_gbrvRu/
  ase-espresso py git : ffa2778-git



     Program PWSCF v.5.1rc2 (svn rev. ) starts on 20Apr2018 at 13:26: 2 

     This program is part of the open-source Quantum ESPRESSO suite
     for quantum simulation of materials; please cite
         "P. Giannozzi et al., J. Phys.:Condens. Matter 21 395502 (2009);
          URL http://www.quantum-espresso.org", 
     in publications or presentations arising from this work. More details at
     http://www.quantum-espresso.org/quote

     Parallel version (MPI), running on    16 processors
     R & G space division:  proc/nbgrp/npool/nimage =      16
     Reading input from pw.inp
     Message from routine read_cards :
     DEPRECATED: no units specified in CELL_PARAMETERS card

     Current dimensions of program PWSCF are:
     Max number of different atomic species (ntypx) = 10
     Max number of k-points (npk) =  40000
     Max angular momentum in pseudopotentials (lmaxx) =  3
     Presently no symmetry can be used with electric field


     IMPORTANT: XC functional enforced from input :
     Exchange-correlation      = RPBE ( 1  4 28  4 0)
     Any further DFT definition will be discarded
     Please, verify this is what you really want


     Subspace diagonalization in iterative solution of the eigenvalue problem:
     a serial algorithm will be used

 
     Parallelization info
     --------------------
     sticks:   dense  smooth     PW     G-vecs:    dense   smooth      PW
     Min         367     147     39               123943    31337    4337
     Max         368     148     40               123966    31384    4354
     Sum        5877    2361    631              1983193   501747   69475
 
     Generating pointlists ...
     new r_m :   0.4125 (alat units)  0.7795 (a.u.) for type    1
     new r_m :   0.4125 (alat units)  0.7795 (a.u.) for type    2


     bravais-lattice index     =            0
     lattice parameter (alat)  =       1.8897  a.u.
     unit-cell volume          =   12682.1321 (a.u.)^3
     number of atoms/cell      =           37
     number of atomic types    =            2
     number of electrons       =       328.00
     number of Kohn-Sham states=          264
     kinetic-energy cutoff     =      44.0992  Ry
     charge density cutoff     =     440.9919  Ry
     convergence threshold     =      7.3E-07
     mixing beta               =       0.1000
     number of iterations used =           10  plain     mixing
     Exchange-correlation      = RPBE ( 1  4 28  4 0)
     nstep                     =           50


     celldm(1)=   1.889726  celldm(2)=   0.000000  celldm(3)=   0.000000
     celldm(4)=   0.000000  celldm(5)=   0.000000  celldm(6)=   0.000000

     crystal axes: (cart. coord. in units of alat)
               a(1) = (   6.191574   0.000000   0.000000 )  
               a(2) = (   0.000000   7.583099   0.000000 )  
               a(3) = (   0.000000   0.000000  40.026524 )  

     reciprocal axes: (cart. coord. in units 2 pi/alat)
               b(1) = (  0.161510  0.000000  0.000000 )  
               b(2) = (  0.000000  0.131872  0.000000 )  
               b(3) = (  0.000000  0.000000  0.024983 )  


     PseudoPot. # 1 for Co read from file:
     /home/alatimer/bin/psp/esp_psp_w_gbrvRu/Co.UPF
     MD5 check sum: f36dda9fe147c5f42efc2a4f7ec0da3d
     Pseudo is Ultrasoft + core correction, Zval =  9.0
     Generated by new atomic code, or converted to UPF format
     Using radial grid of  937 points,  3 beta functions with: 
                l(1) =   1
                l(2) =   2
                l(3) =   2
     Q(r) pseudized with  8 coefficients,  rinner =    1.000   1.000   1.000
                                                       1.000   1.000

     PseudoPot. # 2 for  C read from file:
     /home/alatimer/bin/psp/esp_psp_w_gbrvRu/C.UPF
     MD5 check sum: ab446d787031eba755f1d5ee46644bb0
     Pseudo is Ultrasoft + core correction, Zval =  4.0
     Generated using "atomic" code by A. Dal Corso  v.5.0.2 svn rev. 9415
     Using radial grid of 1073 points,  4 beta functions with: 
                l(1) =   0
                l(2) =   0
                l(3) =   1
                l(4) =   1
     Q(r) pseudized with 0 coefficients 


     atomic species   valence    mass     pseudopotential
        Co1            9.00    58.93320     Co( 1.00)
        C1             4.00    12.01100      C( 1.00)

     Starting magnetic structure 
     atomic species   magnetization
        Co1          0.444
        C1           1.000

     No symmetry found



   Cartesian axes

     site n.     atom                  positions (alat units)
         1           Co1 tau(   1) = (   4.1277161   1.2638498  24.0265242  )
         2           Co1 tau(   2) = (   4.1277161   3.7915494  24.0265242  )
         3           Co1 tau(   3) = (   4.1277161   6.3192490  24.0265242  )
         4           Co1 tau(   4) = (   2.0638581   0.0000000  23.2968402  )
         5           Co1 tau(   5) = (   2.0638581   2.5276996  23.2968402  )
         6           Co1 tau(   6) = (   2.0638581   5.0553992  23.2968402  )
         7           Co1 tau(   7) = (   0.0000000   1.2638498  22.5671562  )
         8           Co1 tau(   8) = (   0.0000000   3.7915494  22.5671562  )
         9           Co1 tau(   9) = (   0.0000000   6.3192490  22.5671562  )
        10           Co1 tau(  10) = (   4.1277161   0.0000000  21.8374721  )
        11           Co1 tau(  11) = (   4.1277161   2.5276996  21.8374721  )
        12           Co1 tau(  12) = (   4.1277161   5.0553992  21.8374721  )
        13           Co1 tau(  13) = (   2.0638581   1.2638498  21.1077881  )
        14           Co1 tau(  14) = (   2.0638581   3.7915494  21.1077881  )
        15           Co1 tau(  15) = (   2.0638581   6.3192490  21.1077881  )
        16           Co1 tau(  16) = (   0.0000000   0.0000000  20.3781041  )
        17           Co1 tau(  17) = (   0.0000000   2.5276996  20.3781041  )
        18           Co1 tau(  18) = (   0.0000000   5.0553992  20.3781041  )
        19           Co1 tau(  19) = (   4.1277161   1.2638498  19.6484201  )
        20           Co1 tau(  20) = (   4.1277161   3.7915494  19.6484201  )
        21           Co1 tau(  21) = (   4.1277161   6.3192490  19.6484201  )
        22           Co1 tau(  22) = (   2.0638581   0.0000000  18.9187361  )
        23           Co1 tau(  23) = (   2.0638581   2.5276996  18.9187361  )
        24           Co1 tau(  24) = (   2.0638581   5.0553992  18.9187361  )
        25           Co1 tau(  25) = (   0.0000000   1.2638498  18.1890521  )
        26           Co1 tau(  26) = (   0.0000000   3.7915494  18.1890521  )
        27           Co1 tau(  27) = (   0.0000000   6.3192490  18.1890521  )
        28           Co1 tau(  28) = (   4.1277161   0.0000000  17.4593680  )
        29           Co1 tau(  29) = (   4.1277161   2.5276996  17.4593680  )
        30           Co1 tau(  30) = (   4.1277161   5.0553992  17.4593680  )
        31           Co1 tau(  31) = (   2.0638581   1.2638498  16.7296840  )
        32           Co1 tau(  32) = (   2.0638581   3.7915494  16.7296840  )
        33           Co1 tau(  33) = (   2.0638581   6.3192490  16.7296840  )
        34           Co1 tau(  34) = (   0.0000000   0.0000000  16.0000000  )
        35           Co1 tau(  35) = (   0.0000000   2.5276996  16.0000000  )
        36           Co1 tau(  36) = (   0.0000000   5.0553992  16.0000000  )
        37           C1  tau(  37) = (   0.0000000   1.2638498  24.3671562  )

     number of k points=    10  Fermi-Dirac smearing, width (Ry)=  0.0073
                       cart. coord. in units 2pi/alat
        k(    1) = (   0.0000000   0.0000000   0.0000000), wk =   0.1111111
        k(    2) = (   0.0000000   0.0439574   0.0000000), wk =   0.2222222
        k(    3) = (   0.0538366   0.0000000   0.0000000), wk =   0.2222222
        k(    4) = (   0.0538366   0.0439574   0.0000000), wk =   0.2222222
        k(    5) = (   0.0538366  -0.0439574   0.0000000), wk =   0.2222222
        k(    6) = (   0.0000000   0.0000000   0.0000000), wk =   0.1111111
        k(    7) = (   0.0000000   0.0439574   0.0000000), wk =   0.2222222
        k(    8) = (   0.0538366   0.0000000   0.0000000), wk =   0.2222222
        k(    9) = (   0.0538366   0.0439574   0.0000000), wk =   0.2222222
        k(   10) = (   0.0538366  -0.0439574   0.0000000), wk =   0.2222222

     Dense  grid:  1983193 G-vectors     FFT dimensions: (  80,  96, 512)

     Smooth grid:   501747 G-vectors     FFT dimensions: (  50,  64, 320)

     Largest allocated arrays     est. size (Mb)     dimensions
        Kohn-Sham Wavefunctions        15.94 Mb     (    3956,  264)
        NL pseudopotentials            28.73 Mb     (    3956,  476)
        Each V/rho on FFT grid          7.50 Mb     (  245760,   2)
        Each G-vector array             0.95 Mb     (  123962)
        G-vector shells                 0.41 Mb     (   54356)
     Largest temporary arrays     est. size (Mb)     dimensions
        Auxiliary wavefunctions        63.74 Mb     (    3956, 1056)
        Each subspace H/S matrix       17.02 Mb     (    1056, 1056)
        Each <psi_i|beta_j> matrix      1.92 Mb     (     476,  264)
        Arrays for rho mixing          37.50 Mb     (  245760,   10)

     Initial potential from superposition of free atoms
     Check: negative starting charge=(component1):   -0.004305
     Check: negative starting charge=(component2):   -0.001664

     starting charge  327.99028, renormalised to  328.00000

     negative rho (up, down):  4.305E-03 1.664E-03
 
     Adding external electric field

     Computed dipole along edir(3) : 
        Dipole               -0.0006 Ry au,         -0.0016 Debye
        Dipole field         -0.0000 Ry au
 
        Potential amp.        0.0001 Ry
        Total length         73.7482 bohr
 
 
     Adding external electric field

     Computed dipole along edir(3) : 
        Dipole               -0.0006 Ry au,         -0.0016 Debye
        Dipole field         -0.0000 Ry au
 
        Potential amp.        0.0001 Ry
        Total length         73.7482 bohr
 
     Starting wfc are  328 randomized atomic wfcs

     total cpu time spent up to now is       48.6 secs

     Self-consistent Calculation

     iteration #  1     ecut=    44.10 Ry     beta=0.10
     Davidson diagonalization with overlap
     ethr =  1.00E-02,  avg # of iterations =  7.9

     negative rho (up, down):  4.198E-03 1.868E-03
 
     Adding external electric field

     Computed dipole along edir(3) : 
        Dipole               -0.4954 Ry au,         -1.2591 Debye
        Dipole field         -0.0005 Ry au
 
        Potential amp.        0.0724 Ry
        Total length         73.7482 bohr
 
 
     Adding external electric field

     Computed dipole along edir(3) : 
        Dipole               -0.4954 Ry au,         -1.2591 Debye
        Dipole field         -0.0005 Ry au
 
        Potential amp.        0.0724 Ry
        Total length         73.7482 bohr
 
 
     Magnetic moment per site:
     atom:    1    charge:    3.1848    magn:    1.4115    constr:    0.0000
     atom:    2    charge:    3.1745    magn:    1.4238    constr:    0.0000
     atom:    3    charge:    3.1745    magn:    1.4237    constr:    0.0000
     atom:    4    charge:    3.2027    magn:    1.3962    constr:    0.0000
     atom:    5    charge:    3.2027    magn:    1.3963    constr:    0.0000
     atom:    6    charge:    3.2016    magn:    1.3972    constr:    0.0000
     atom:    7    charge:    3.2332    magn:    1.3637    constr:    0.0000
     atom:    8    charge:    3.2152    magn:    1.3839    constr:    0.0000
     atom:    9    charge:    3.2152    magn:    1.3839    constr:    0.0000
     atom:   10    charge:    3.2300    magn:    1.3693    constr:    0.0000
     atom:   11    charge:    3.2300    magn:    1.3693    constr:    0.0000
     atom:   12    charge:    3.2292    magn:    1.3691    constr:    0.0000
     atom:   13    charge:    3.2311    magn:    1.3698    constr:    0.0000
     atom:   14    charge:    3.2294    magn:    1.3705    constr:    0.0000
     atom:   15    charge:    3.2294    magn:    1.3705    constr:    0.0000
     atom:   16    charge:    3.2294    magn:    1.3693    constr:    0.0000
     atom:   17    charge:    3.2294    magn:    1.3693    constr:    0.0000
     atom:   18    charge:    3.2301    magn:    1.3702    constr:    0.0000
     atom:   19    charge:    3.2294    magn:    1.3696    constr:    0.0000
     atom:   20    charge:    3.2293    magn:    1.3697    constr:    0.0000
     atom:   21    charge:    3.2293    magn:    1.3697    constr:    0.0000
     atom:   22    charge:    3.2298    magn:    1.3702    constr:    0.0000
     atom:   23    charge:    3.2298    magn:    1.3702    constr:    0.0000
     atom:   24    charge:    3.2296    magn:    1.3703    constr:    0.0000
     atom:   25    charge:    3.2296    magn:    1.3692    constr:    0.0000
     atom:   26    charge:    3.2295    magn:    1.3692    constr:    0.0000
     atom:   27    charge:    3.2295    magn:    1.3692    constr:    0.0000
     atom:   28    charge:    3.2150    magn:    1.3828    constr:    0.0000
     atom:   29    charge:    3.2150    magn:    1.3828    constr:    0.0000
     atom:   30    charge:    3.2148    magn:    1.3826    constr:    0.0000
     atom:   31    charge:    3.2022    magn:    1.3967    constr:    0.0000
     atom:   32    charge:    3.2019    magn:    1.3967    constr:    0.0000
     atom:   33    charge:    3.2019    magn:    1.3967    constr:    0.0000
     atom:   34    charge:    3.1737    magn:    1.4246    constr:    0.0000
     atom:   35    charge:    3.1737    magn:    1.4245    constr:    0.0000
     atom:   36    charge:    3.1735    magn:    1.4245    constr:    0.0000
     atom:   37    charge:    0.5702    magn:    0.5350    constr:    0.0000

     total cpu time spent up to now is      201.6 secs

     total energy              =   -2891.50158671 Ry
     Harris-Foulkes estimate   =   -2895.01907563 Ry
     estimated scf accuracy    <      23.24374227 Ry

     total magnetization       =    76.66 Bohr mag/cell
     absolute magnetization    =    76.69 Bohr mag/cell

     iteration #  2     ecut=    44.10 Ry     beta=0.10
     Davidson diagonalization with overlap
     ethr =  7.09E-03,  avg # of iterations =  3.0

     negative rho (up, down):  5.330E-03 3.080E-03
 
     Adding external electric field

     Computed dipole along edir(3) : 
        Dipole                0.5238 Ry au,          1.3314 Debye
        Dipole field          0.0005 Ry au
 
        Potential amp.       -0.0766 Ry
        Total length         73.7482 bohr
 
 
     Adding external electric field

     Computed dipole along edir(3) : 
        Dipole                0.5238 Ry au,          1.3314 Debye
        Dipole field          0.0005 Ry au
 
        Potential amp.       -0.0766 Ry
        Total length         73.7482 bohr
 
 
     Magnetic moment per site:
     atom:    1    charge:    3.2095    magn:    1.3848    constr:    0.0000
     atom:    2    charge:    3.2017    magn:    1.3956    constr:    0.0000
     atom:    3    charge:    3.2017    magn:    1.3956    constr:    0.0000
     atom:    4    charge:    3.2204    magn:    1.3738    constr:    0.0000
     atom:    5    charge:    3.2204    magn:    1.3738    constr:    0.0000
     atom:    6    charge:    3.2201    magn:    1.3740    constr:    0.0000
     atom:    7    charge:    3.2277    magn:    1.3559    constr:    0.0000
     atom:    8    charge:    3.2187    magn:    1.3722    constr:    0.0000
     atom:    9    charge:    3.2187    magn:    1.3722    constr:    0.0000
     atom:   10    charge:    3.2144    magn:    1.3704    constr:    0.0000
     atom:   11    charge:    3.2144    magn:    1.3704    constr:    0.0000
     atom:   12    charge:    3.2149    magn:    1.3694    constr:    0.0000
     atom:   13    charge:    3.2080    magn:    1.3732    constr:    0.0000
     atom:   14    charge:    3.2075    magn:    1.3736    constr:    0.0000
     atom:   15    charge:    3.2075    magn:    1.3736    constr:    0.0000
     atom:   16    charge:    3.2032    magn:    1.3716    constr:    0.0000
     atom:   17    charge:    3.2032    magn:    1.3716    constr:    0.0000
     atom:   18    charge:    3.2050    magn:    1.3731    constr:    0.0000
     atom:   19    charge:    3.2051    magn:    1.3726    constr:    0.0000
     atom:   20    charge:    3.2053    magn:    1.3729    constr:    0.0000
     atom:   21    charge:    3.2053    magn:    1.3729    constr:    0.0000
     atom:   22    charge:    3.2112    magn:    1.3723    constr:    0.0000
     atom:   23    charge:    3.2112    magn:    1.3724    constr:    0.0000
     atom:   24    charge:    3.2115    magn:    1.3723    constr:    0.0000
     atom:   25    charge:    3.2216    magn:    1.3648    constr:    0.0000
     atom:   26    charge:    3.2218    magn:    1.3647    constr:    0.0000
     atom:   27    charge:    3.2218    magn:    1.3647    constr:    0.0000
     atom:   28    charge:    3.2269    magn:    1.3635    constr:    0.0000
     atom:   29    charge:    3.2269    magn:    1.3635    constr:    0.0000
     atom:   30    charge:    3.2269    magn:    1.3632    constr:    0.0000
     atom:   31    charge:    3.2238    magn:    1.3709    constr:    0.0000
     atom:   32    charge:    3.2236    magn:    1.3709    constr:    0.0000
     atom:   33    charge:    3.2236    magn:    1.3709    constr:    0.0000
     atom:   34    charge:    3.2019    magn:    1.3959    constr:    0.0000
     atom:   35    charge:    3.2019    magn:    1.3959    constr:    0.0000
     atom:   36    charge:    3.2017    magn:    1.3959    constr:    0.0000
     atom:   37    charge:    0.5745    magn:    0.5306    constr:    0.0000

     total cpu time spent up to now is      305.7 secs

     total energy              =   -2890.94068739 Ry
     Harris-Foulkes estimate   =   -2901.17414256 Ry
     estimated scf accuracy    <     248.69128892 Ry

     total magnetization       =    74.15 Bohr mag/cell
     absolute magnetization    =    74.19 Bohr mag/cell

     iteration #  3     ecut=    44.10 Ry     beta=0.10
     Davidson diagonalization with overlap
     ethr =  7.09E-03,  avg # of iterations =  1.4

     negative rho (up, down):  7.904E-03 5.027E-03
 
     Adding external electric field

     Computed dipole along edir(3) : 
        Dipole               -0.5044 Ry au,         -1.2820 Debye
        Dipole field         -0.0005 Ry au
 
        Potential amp.        0.0737 Ry
        Total length         73.7482 bohr
 
 
     Adding external electric field

     Computed dipole along edir(3) : 
        Dipole               -0.5044 Ry au,         -1.2820 Debye
        Dipole field         -0.0005 Ry au
 
        Potential amp.        0.0737 Ry
        Total length         73.7482 bohr
 
 
     Magnetic moment per site:
     atom:    1    charge:    3.2161    magn:    1.3760    constr:    0.0000
     atom:    2    charge:    3.2104    magn:    1.3855    constr:    0.0000
     atom:    3    charge:    3.2104    magn:    1.3855    constr:    0.0000
     atom:    4    charge:    3.2228    magn:    1.3684    constr:    0.0000
     atom:    5    charge:    3.2228    magn:    1.3684    constr:    0.0000
     atom:    6    charge:    3.2230    magn:    1.3683    constr:    0.0000
     atom:    7    charge:    3.2273    magn:    1.3516    constr:    0.0000
     atom:    8    charge:    3.2196    magn:    1.3679    constr:    0.0000
     atom:    9    charge:    3.2196    magn:    1.3679    constr:    0.0000
     atom:   10    charge:    3.2149    magn:    1.3663    constr:    0.0000
     atom:   11    charge:    3.2149    magn:    1.3663    constr:    0.0000
     atom:   12    charge:    3.2156    magn:    1.3651    constr:    0.0000
     atom:   13    charge:    3.2088    magn:    1.3690    constr:    0.0000
     atom:   14    charge:    3.2085    magn:    1.3692    constr:    0.0000
     atom:   15    charge:    3.2085    magn:    1.3692    constr:    0.0000
     atom:   16    charge:    3.2040    magn:    1.3674    constr:    0.0000
     atom:   17    charge:    3.2040    magn:    1.3674    constr:    0.0000
     atom:   18    charge:    3.2056    magn:    1.3692    constr:    0.0000
     atom:   19    charge:    3.2048    magn:    1.3693    constr:    0.0000
     atom:   20    charge:    3.2050    magn:    1.3696    constr:    0.0000
     atom:   21    charge:    3.2050    magn:    1.3696    constr:    0.0000
     atom:   22    charge:    3.2093    magn:    1.3704    constr:    0.0000
     atom:   23    charge:    3.2093    magn:    1.3704    constr:    0.0000
     atom:   24    charge:    3.2094    magn:    1.3704    constr:    0.0000
     atom:   25    charge:    3.2173    magn:    1.3645    constr:    0.0000
     atom:   26    charge:    3.2174    magn:    1.3643    constr:    0.0000
     atom:   27    charge:    3.2174    magn:    1.3643    constr:    0.0000
     atom:   28    charge:    3.2213    magn:    1.3644    constr:    0.0000
     atom:   29    charge:    3.2212    magn:    1.3644    constr:    0.0000
     atom:   30    charge:    3.2212    magn:    1.3641    constr:    0.0000
     atom:   31    charge:    3.2194    magn:    1.3714    constr:    0.0000
     atom:   32    charge:    3.2193    magn:    1.3713    constr:    0.0000
     atom:   33    charge:    3.2193    magn:    1.3713    constr:    0.0000
     atom:   34    charge:    3.2058    magn:    1.3902    constr:    0.0000
     atom:   35    charge:    3.2058    magn:    1.3902    constr:    0.0000
     atom:   36    charge:    3.2057    magn:    1.3900    constr:    0.0000
     atom:   37    charge:    0.5756    magn:    0.5289    constr:    0.0000

     total cpu time spent up to now is      400.2 secs

     total energy              =   -2894.15815966 Ry
     Harris-Foulkes estimate   =   -2895.66981572 Ry
     estimated scf accuracy    <      88.98058740 Ry

     total magnetization       =    76.17 Bohr mag/cell
     absolute magnetization    =    76.22 Bohr mag/cell

     iteration #  4     ecut=    44.10 Ry     beta=0.10
     Davidson diagonalization with overlap
     ethr =  7.09E-03,  avg # of iterations =  1.0

     negative rho (up, down):  1.014E-02 6.560E-03
 
     Adding external electric field

     Computed dipole along edir(3) : 
        Dipole               -0.0235 Ry au,         -0.0597 Debye
        Dipole field         -0.0000 Ry au
 
        Potential amp.        0.0034 Ry
        Total length         73.7482 bohr
 
 
     Adding external electric field

     Computed dipole along edir(3) : 
        Dipole               -0.0235 Ry au,         -0.0597 Debye
        Dipole field         -0.0000 Ry au
 
        Potential amp.        0.0034 Ry
        Total length         73.7482 bohr
 
 
     Magnetic moment per site:
     atom:    1    charge:    3.2188    magn:    1.3656    constr:    0.0000
     atom:    2    charge:    3.2184    magn:    1.3720    constr:    0.0000
     atom:    3    charge:    3.2183    magn:    1.3720    constr:    0.0000
     atom:    4    charge:    3.2166    magn:    1.3651    constr:    0.0000
     atom:    5    charge:    3.2166    magn:    1.3651    constr:    0.0000
     atom:    6    charge:    3.2180    magn:    1.3641    constr:    0.0000
     atom:    7    charge:    3.2200    magn:    1.3439    constr:    0.0000
     atom:    8    charge:    3.2141    magn:    1.3637    constr:    0.0000
     atom:    9    charge:    3.2141    magn:    1.3637    constr:    0.0000
     atom:   10    charge:    3.2120    magn:    1.3592    constr:    0.0000
     atom:   11    charge:    3.2120    magn:    1.3592    constr:    0.0000
     atom:   12    charge:    3.2128    magn:    1.3578    constr:    0.0000
     atom:   13    charge:    3.2098    magn:    1.3596    constr:    0.0000
     atom:   14    charge:    3.2099    magn:    1.3592    constr:    0.0000
     atom:   15    charge:    3.2099    magn:    1.3592    constr:    0.0000
     atom:   16    charge:    3.2077    magn:    1.3561    constr:    0.0000
     atom:   17    charge:    3.2077    magn:    1.3561    constr:    0.0000
     atom:   18    charge:    3.2087    magn:    1.3585    constr:    0.0000
     atom:   19    charge:    3.2076    magn:    1.3587    constr:    0.0000
     atom:   20    charge:    3.2077    magn:    1.3590    constr:    0.0000
     atom:   21    charge:    3.2077    magn:    1.3590    constr:    0.0000
     atom:   22    charge:    3.2091    magn:    1.3616    constr:    0.0000
     atom:   23    charge:    3.2091    magn:    1.3616    constr:    0.0000
     atom:   24    charge:    3.2092    magn:    1.3617    constr:    0.0000
     atom:   25    charge:    3.2123    magn:    1.3587    constr:    0.0000
     atom:   26    charge:    3.2123    magn:    1.3586    constr:    0.0000
     atom:   27    charge:    3.2123    magn:    1.3586    constr:    0.0000
     atom:   28    charge:    3.2139    magn:    1.3612    constr:    0.0000
     atom:   29    charge:    3.2139    magn:    1.3612    constr:    0.0000
     atom:   30    charge:    3.2139    magn:    1.3607    constr:    0.0000
     atom:   31    charge:    3.2173    magn:    1.3647    constr:    0.0000
     atom:   32    charge:    3.2172    magn:    1.3645    constr:    0.0000
     atom:   33    charge:    3.2172    magn:    1.3645    constr:    0.0000
     atom:   34    charge:    3.2210    magn:    1.3701    constr:    0.0000
     atom:   35    charge:    3.2210    magn:    1.3701    constr:    0.0000
     atom:   36    charge:    3.2210    magn:    1.3698    constr:    0.0000
     atom:   37    charge:    0.5768    magn:    0.5239    constr:    0.0000

     total cpu time spent up to now is      493.4 secs

     total energy              =   -2894.74420654 Ry
     Harris-Foulkes estimate   =   -2895.34670232 Ry
     estimated scf accuracy    <      46.68778550 Ry

     total magnetization       =    76.09 Bohr mag/cell
     absolute magnetization    =    76.13 Bohr mag/cell

     iteration #  5     ecut=    44.10 Ry     beta=0.10
     Davidson diagonalization with overlap
     ethr =  7.09E-03,  avg # of iterations =  1.0

     negative rho (up, down):  7.801E-03 5.539E-03
 
     Adding external electric field

     Computed dipole along edir(3) : 
        Dipole               -0.2103 Ry au,         -0.5344 Debye
        Dipole field         -0.0002 Ry au
 
        Potential amp.        0.0307 Ry
        Total length         73.7482 bohr
 
 
     Adding external electric field

     Computed dipole along edir(3) : 
        Dipole               -0.2103 Ry au,         -0.5344 Debye
        Dipole field         -0.0002 Ry au
 
        Potential amp.        0.0307 Ry
        Total length         73.7482 bohr
 
 
     Magnetic moment per site:
     atom:    1    charge:    3.2358    magn:    1.2993    constr:    0.0000
     atom:    2    charge:    3.2409    magn:    1.3086    constr:    0.0000
     atom:    3    charge:    3.2409    magn:    1.3085    constr:    0.0000
     atom:    4    charge:    3.2146    magn:    1.3167    constr:    0.0000
     atom:    5    charge:    3.2146    magn:    1.3167    constr:    0.0000
     atom:    6    charge:    3.2155    magn:    1.3163    constr:    0.0000
     atom:    7    charge:    3.2042    magn:    1.2833    constr:    0.0000
     atom:    8    charge:    3.2068    magn:    1.3181    constr:    0.0000
     atom:    9    charge:    3.2068    magn:    1.3181    constr:    0.0000
     atom:   10    charge:    3.1972    magn:    1.3154    constr:    0.0000
     atom:   11    charge:    3.1972    magn:    1.3154    constr:    0.0000
     atom:   12    charge:    3.1955    magn:    1.3145    constr:    0.0000
     atom:   13    charge:    3.2028    magn:    1.3122    constr:    0.0000
     atom:   14    charge:    3.2010    magn:    1.3120    constr:    0.0000
     atom:   15    charge:    3.2010    magn:    1.3120    constr:    0.0000
     atom:   16    charge:    3.2028    magn:    1.3067    constr:    0.0000
     atom:   17    charge:    3.2028    magn:    1.3067    constr:    0.0000
     atom:   18    charge:    3.2040    magn:    1.3106    constr:    0.0000
     atom:   19    charge:    3.2053    magn:    1.3073    constr:    0.0000
     atom:   20    charge:    3.2053    magn:    1.3076    constr:    0.0000
     atom:   21    charge:    3.2053    magn:    1.3076    constr:    0.0000
     atom:   22    charge:    3.2051    magn:    1.3101    constr:    0.0000
     atom:   23    charge:    3.2051    magn:    1.3101    constr:    0.0000
     atom:   24    charge:    3.2052    magn:    1.3101    constr:    0.0000
     atom:   25    charge:    3.1988    magn:    1.3130    constr:    0.0000
     atom:   26    charge:    3.1988    magn:    1.3125    constr:    0.0000
     atom:   27    charge:    3.1988    magn:    1.3126    constr:    0.0000
     atom:   28    charge:    3.2121    magn:    1.3098    constr:    0.0000
     atom:   29    charge:    3.2121    magn:    1.3098    constr:    0.0000
     atom:   30    charge:    3.2124    magn:    1.3088    constr:    0.0000
     atom:   31    charge:    3.2214    magn:    1.3112    constr:    0.0000
     atom:   32    charge:    3.2214    magn:    1.3106    constr:    0.0000
     atom:   33    charge:    3.2214    magn:    1.3106    constr:    0.0000
     atom:   34    charge:    3.2325    magn:    1.3152    constr:    0.0000
     atom:   35    charge:    3.2325    magn:    1.3152    constr:    0.0000
     atom:   36    charge:    3.2334    magn:    1.3138    constr:    0.0000
     atom:   37    charge:    0.5875    magn:    0.4941    constr:    0.0000

     total cpu time spent up to now is      586.1 secs

     total energy              =   -2895.27374873 Ry
     Harris-Foulkes estimate   =   -2895.04551135 Ry
     estimated scf accuracy    <       2.32233175 Ry

     total magnetization       =    76.28 Bohr mag/cell
     absolute magnetization    =    76.33 Bohr mag/cell

     iteration #  6     ecut=    44.10 Ry     beta=0.10
     Davidson diagonalization with overlap
     ethr =  7.08E-04,  avg # of iterations =  8.5

     negative rho (up, down):  6.121E-03 5.061E-03
 
     Adding external electric field

     Computed dipole along edir(3) : 
        Dipole               -0.1088 Ry au,         -0.2766 Debye
        Dipole field         -0.0001 Ry au
 
        Potential amp.        0.0159 Ry
        Total length         73.7482 bohr
 
 
     Adding external electric field

     Computed dipole along edir(3) : 
        Dipole               -0.1088 Ry au,         -0.2766 Debye
        Dipole field         -0.0001 Ry au
 
        Potential amp.        0.0159 Ry
        Total length         73.7482 bohr
 
 
     Magnetic moment per site:
     atom:    1    charge:    3.2295    magn:    1.2563    constr:    0.0000
     atom:    2    charge:    3.2402    magn:    1.2688    constr:    0.0000
     atom:    3    charge:    3.2402    magn:    1.2687    constr:    0.0000
     atom:    4    charge:    3.2174    magn:    1.2701    constr:    0.0000
     atom:    5    charge:    3.2174    magn:    1.2701    constr:    0.0000
     atom:    6    charge:    3.2197    magn:    1.2687    constr:    0.0000
     atom:    7    charge:    3.1984    magn:    1.2242    constr:    0.0000
     atom:    8    charge:    3.2109    magn:    1.2691    constr:    0.0000
     atom:    9    charge:    3.2109    magn:    1.2691    constr:    0.0000
     atom:   10    charge:    3.1947    magn:    1.2691    constr:    0.0000
     atom:   11    charge:    3.1947    magn:    1.2691    constr:    0.0000
     atom:   12    charge:    3.1945    magn:    1.2662    constr:    0.0000
     atom:   13    charge:    3.1981    magn:    1.2687    constr:    0.0000
     atom:   14    charge:    3.1978    magn:    1.2665    constr:    0.0000
     atom:   15    charge:    3.1978    magn:    1.2665    constr:    0.0000
     atom:   16    charge:    3.1985    magn:    1.2621    constr:    0.0000
     atom:   17    charge:    3.1985    magn:    1.2621    constr:    0.0000
     atom:   18    charge:    3.1995    magn:    1.2678    constr:    0.0000
     atom:   19    charge:    3.1979    magn:    1.2653    constr:    0.0000
     atom:   20    charge:    3.1983    magn:    1.2654    constr:    0.0000
     atom:   21    charge:    3.1983    magn:    1.2654    constr:    0.0000
     atom:   22    charge:    3.1962    magn:    1.2689    constr:    0.0000
     atom:   23    charge:    3.1962    magn:    1.2689    constr:    0.0000
     atom:   24    charge:    3.1965    magn:    1.2687    constr:    0.0000
     atom:   25    charge:    3.1930    magn:    1.2686    constr:    0.0000
     atom:   26    charge:    3.1931    magn:    1.2679    constr:    0.0000
     atom:   27    charge:    3.1931    magn:    1.2679    constr:    0.0000
     atom:   28    charge:    3.2072    magn:    1.2665    constr:    0.0000
     atom:   29    charge:    3.2072    magn:    1.2665    constr:    0.0000
     atom:   30    charge:    3.2074    magn:    1.2654    constr:    0.0000
     atom:   31    charge:    3.2191    magn:    1.2681    constr:    0.0000
     atom:   32    charge:    3.2192    magn:    1.2671    constr:    0.0000
     atom:   33    charge:    3.2192    magn:    1.2671    constr:    0.0000
     atom:   34    charge:    3.2464    magn:    1.2623    constr:    0.0000
     atom:   35    charge:    3.2464    magn:    1.2623    constr:    0.0000
     atom:   36    charge:    3.2470    magn:    1.2609    constr:    0.0000
     atom:   37    charge:    0.5960    magn:    0.4665    constr:    0.0000

     total cpu time spent up to now is      721.0 secs

     total energy              =   -2895.64889073 Ry
     Harris-Foulkes estimate   =   -2895.46173976 Ry
     estimated scf accuracy    <       4.33132794 Ry

     total magnetization       =    75.37 Bohr mag/cell
     absolute magnetization    =    75.48 Bohr mag/cell

     iteration #  7     ecut=    44.10 Ry     beta=0.10
     Davidson diagonalization with overlap
     ethr =  7.08E-04,  avg # of iterations =  1.2

     negative rho (up, down):  6.035E-03 5.455E-03
 
     Adding external electric field

     Computed dipole along edir(3) : 
        Dipole               -0.1764 Ry au,         -0.4485 Debye
        Dipole field         -0.0002 Ry au
 
        Potential amp.        0.0258 Ry
        Total length         73.7482 bohr
 
 
     Adding external electric field

     Computed dipole along edir(3) : 
        Dipole               -0.1764 Ry au,         -0.4485 Debye
        Dipole field         -0.0002 Ry au
 
        Potential amp.        0.0258 Ry
        Total length         73.7482 bohr
 
 
     Magnetic moment per site:
     atom:    1    charge:    3.2249    magn:    1.2320    constr:    0.0000
     atom:    2    charge:    3.2376    magn:    1.2471    constr:    0.0000
     atom:    3    charge:    3.2376    magn:    1.2471    constr:    0.0000
     atom:    4    charge:    3.2137    magn:    1.2477    constr:    0.0000
     atom:    5    charge:    3.2137    magn:    1.2477    constr:    0.0000
     atom:    6    charge:    3.2159    magn:    1.2463    constr:    0.0000
     atom:    7    charge:    3.1975    magn:    1.1890    constr:    0.0000
     atom:    8    charge:    3.2078    magn:    1.2458    constr:    0.0000
     atom:    9    charge:    3.2078    magn:    1.2458    constr:    0.0000
     atom:   10    charge:    3.1981    magn:    1.2406    constr:    0.0000
     atom:   11    charge:    3.1981    magn:    1.2406    constr:    0.0000
     atom:   12    charge:    3.1988    magn:    1.2371    constr:    0.0000
     atom:   13    charge:    3.1968    magn:    1.2435    constr:    0.0000
     atom:   14    charge:    3.1971    magn:    1.2408    constr:    0.0000
     atom:   15    charge:    3.1971    magn:    1.2408    constr:    0.0000
     atom:   16    charge:    3.1966    magn:    1.2362    constr:    0.0000
     atom:   17    charge:    3.1966    magn:    1.2362    constr:    0.0000
     atom:   18    charge:    3.1967    magn:    1.2433    constr:    0.0000
     atom:   19    charge:    3.1967    magn:    1.2395    constr:    0.0000
     atom:   20    charge:    3.1965    magn:    1.2401    constr:    0.0000
     atom:   21    charge:    3.1965    magn:    1.2401    constr:    0.0000
     atom:   22    charge:    3.1966    magn:    1.2426    constr:    0.0000
     atom:   23    charge:    3.1966    magn:    1.2426    constr:    0.0000
     atom:   24    charge:    3.1965    magn:    1.2428    constr:    0.0000
     atom:   25    charge:    3.1985    magn:    1.2386    constr:    0.0000
     atom:   26    charge:    3.1986    magn:    1.2378    constr:    0.0000
     atom:   27    charge:    3.1986    magn:    1.2378    constr:    0.0000
     atom:   28    charge:    3.2077    magn:    1.2396    constr:    0.0000
     atom:   29    charge:    3.2076    magn:    1.2396    constr:    0.0000
     atom:   30    charge:    3.2076    magn:    1.2385    constr:    0.0000
     atom:   31    charge:    3.2162    magn:    1.2447    constr:    0.0000
     atom:   32    charge:    3.2165    magn:    1.2435    constr:    0.0000
     atom:   33    charge:    3.2165    magn:    1.2435    constr:    0.0000
     atom:   34    charge:    3.2377    magn:    1.2434    constr:    0.0000
     atom:   35    charge:    3.2377    magn:    1.2434    constr:    0.0000
     atom:   36    charge:    3.2382    magn:    1.2421    constr:    0.0000
     atom:   37    charge:    0.5989    magn:    0.4485    constr:    0.0000

     total cpu time spent up to now is      814.5 secs

     total energy              =   -2895.84268811 Ry
     Harris-Foulkes estimate   =   -2895.76394583 Ry
     estimated scf accuracy    <       3.35682645 Ry

     total magnetization       =    74.32 Bohr mag/cell
     absolute magnetization    =    74.60 Bohr mag/cell

     iteration #  8     ecut=    44.10 Ry     beta=0.10
     Davidson diagonalization with overlap
     ethr =  7.08E-04,  avg # of iterations =  1.0

     negative rho (up, down):  5.626E-03 5.979E-03
 
     Adding external electric field

     Computed dipole along edir(3) : 
        Dipole               -0.1561 Ry au,         -0.3968 Debye
        Dipole field         -0.0002 Ry au
 
        Potential amp.        0.0228 Ry
        Total length         73.7482 bohr
 
 
     Adding external electric field

     Computed dipole along edir(3) : 
        Dipole               -0.1561 Ry au,         -0.3968 Debye
        Dipole field         -0.0002 Ry au
 
        Potential amp.        0.0228 Ry
        Total length         73.7482 bohr
 
 
     Magnetic moment per site:
     atom:    1    charge:    3.2188    magn:    1.2034    constr:    0.0000
     atom:    2    charge:    3.2277    magn:    1.2264    constr:    0.0000
     atom:    3    charge:    3.2277    magn:    1.2264    constr:    0.0000
     atom:    4    charge:    3.2130    magn:    1.2193    constr:    0.0000
     atom:    5    charge:    3.2130    magn:    1.2193    constr:    0.0000
     atom:    6    charge:    3.2136    magn:    1.2192    constr:    0.0000
     atom:    7    charge:    3.1975    magn:    1.1471    constr:    0.0000
     atom:    8    charge:    3.2082    magn:    1.2164    constr:    0.0000
     atom:    9    charge:    3.2082    magn:    1.2164    constr:    0.0000
     atom:   10    charge:    3.1965    magn:    1.2131    constr:    0.0000
     atom:   11    charge:    3.1965    magn:    1.2131    constr:    0.0000
     atom:   12    charge:    3.1958    magn:    1.2109    constr:    0.0000
     atom:   13    charge:    3.1989    magn:    1.2129    constr:    0.0000
     atom:   14    charge:    3.1982    magn:    1.2111    constr:    0.0000
     atom:   15    charge:    3.1982    magn:    1.2111    constr:    0.0000
     atom:   16    charge:    3.1973    magn:    1.2060    constr:    0.0000
     atom:   17    charge:    3.1973    magn:    1.2060    constr:    0.0000
     atom:   18    charge:    3.1985    magn:    1.2130    constr:    0.0000
     atom:   19    charge:    3.1977    magn:    1.2095    constr:    0.0000
     atom:   20    charge:    3.1980    magn:    1.2097    constr:    0.0000
     atom:   21    charge:    3.1980    magn:    1.2097    constr:    0.0000
     atom:   22    charge:    3.1984    magn:    1.2123    constr:    0.0000
     atom:   23    charge:    3.1984    magn:    1.2123    constr:    0.0000
     atom:   24    charge:    3.1987    magn:    1.2123    constr:    0.0000
     atom:   25    charge:    3.1965    magn:    1.2116    constr:    0.0000
     atom:   26    charge:    3.1968    magn:    1.2104    constr:    0.0000
     atom:   27    charge:    3.1968    magn:    1.2105    constr:    0.0000
     atom:   28    charge:    3.2061    magn:    1.2107    constr:    0.0000
     atom:   29    charge:    3.2061    magn:    1.2107    constr:    0.0000
     atom:   30    charge:    3.2064    magn:    1.2092    constr:    0.0000
     atom:   31    charge:    3.2130    magn:    1.2179    constr:    0.0000
     atom:   32    charge:    3.2131    magn:    1.2166    constr:    0.0000
     atom:   33    charge:    3.2131    magn:    1.2165    constr:    0.0000
     atom:   34    charge:    3.2285    magn:    1.2198    constr:    0.0000
     atom:   35    charge:    3.2285    magn:    1.2198    constr:    0.0000
     atom:   36    charge:    3.2293    magn:    1.2183    constr:    0.0000
     atom:   37    charge:    0.6002    magn:    0.4254    constr:    0.0000

     total cpu time spent up to now is      907.5 secs

     total energy              =   -2896.05158037 Ry
     Harris-Foulkes estimate   =   -2895.89247522 Ry
     estimated scf accuracy    <       0.70152582 Ry

     total magnetization       =    73.37 Bohr mag/cell
     absolute magnetization    =    73.80 Bohr mag/cell

     iteration #  9     ecut=    44.10 Ry     beta=0.10
     Davidson diagonalization with overlap
     ethr =  2.14E-04,  avg # of iterations =  6.4

     negative rho (up, down):  6.253E-03 7.656E-03
 
     Adding external electric field

     Computed dipole along edir(3) : 
        Dipole               -0.0981 Ry au,         -0.2494 Debye
        Dipole field         -0.0001 Ry au
 
        Potential amp.        0.0143 Ry
        Total length         73.7482 bohr
 
 
     Adding external electric field

     Computed dipole along edir(3) : 
        Dipole               -0.0981 Ry au,         -0.2494 Debye
        Dipole field         -0.0001 Ry au
 
        Potential amp.        0.0143 Ry
        Total length         73.7482 bohr
 
 
     Magnetic moment per site:
     atom:    1    charge:    3.2089    magn:    1.1187    constr:    0.0000
     atom:    2    charge:    3.2304    magn:    1.1443    constr:    0.0000
     atom:    3    charge:    3.2304    magn:    1.1443    constr:    0.0000
     atom:    4    charge:    3.2043    magn:    1.1463    constr:    0.0000
     atom:    5    charge:    3.2043    magn:    1.1463    constr:    0.0000
     atom:    6    charge:    3.2073    magn:    1.1447    constr:    0.0000
     atom:    7    charge:    3.1853    magn:    1.0342    constr:    0.0000
     atom:    8    charge:    3.2051    magn:    1.1373    constr:    0.0000
     atom:    9    charge:    3.2051    magn:    1.1373    constr:    0.0000
     atom:   10    charge:    3.1933    magn:    1.1342    constr:    0.0000
     atom:   11    charge:    3.1933    magn:    1.1342    constr:    0.0000
     atom:   12    charge:    3.1933    magn:    1.1323    constr:    0.0000
     atom:   13    charge:    3.1954    magn:    1.1350    constr:    0.0000
     atom:   14    charge:    3.1949    magn:    1.1333    constr:    0.0000
     atom:   15    charge:    3.1949    magn:    1.1333    constr:    0.0000
     atom:   16    charge:    3.1973    magn:    1.1253    constr:    0.0000
     atom:   17    charge:    3.1973    magn:    1.1253    constr:    0.0000
     atom:   18    charge:    3.1990    magn:    1.1328    constr:    0.0000
     atom:   19    charge:    3.1980    magn:    1.1286    constr:    0.0000
     atom:   20    charge:    3.1980    magn:    1.1285    constr:    0.0000
     atom:   21    charge:    3.1980    magn:    1.1285    constr:    0.0000
     atom:   22    charge:    3.1950    magn:    1.1333    constr:    0.0000
     atom:   23    charge:    3.1950    magn:    1.1333    constr:    0.0000
     atom:   24    charge:    3.1955    magn:    1.1334    constr:    0.0000
     atom:   25    charge:    3.1936    magn:    1.1329    constr:    0.0000
     atom:   26    charge:    3.1930    magn:    1.1318    constr:    0.0000
     atom:   27    charge:    3.1930    magn:    1.1318    constr:    0.0000
     atom:   28    charge:    3.2002    magn:    1.1327    constr:    0.0000
     atom:   29    charge:    3.2002    magn:    1.1327    constr:    0.0000
     atom:   30    charge:    3.1996    magn:    1.1314    constr:    0.0000
     atom:   31    charge:    3.2039    magn:    1.1441    constr:    0.0000
     atom:   32    charge:    3.2035    magn:    1.1429    constr:    0.0000
     atom:   33    charge:    3.2035    magn:    1.1429    constr:    0.0000
     atom:   34    charge:    3.2253    magn:    1.1390    constr:    0.0000
     atom:   35    charge:    3.2253    magn:    1.1390    constr:    0.0000
     atom:   36    charge:    3.2251    magn:    1.1382    constr:    0.0000
     atom:   37    charge:    0.6015    magn:    0.3597    constr:    0.0000

     total cpu time spent up to now is     1023.8 secs

     total energy              =   -2896.44457622 Ry
     Harris-Foulkes estimate   =   -2896.08010011 Ry
     estimated scf accuracy    <       0.92768295 Ry

     total magnetization       =    71.89 Bohr mag/cell
     absolute magnetization    =    72.58 Bohr mag/cell

     iteration # 10     ecut=    44.10 Ry     beta=0.10
     Davidson diagonalization with overlap
     ethr =  2.14E-04,  avg # of iterations =  5.2

     negative rho (up, down):  1.054E-02 1.085E-02
 
     Adding external electric field

     Computed dipole along edir(3) : 
        Dipole               -0.0652 Ry au,         -0.1658 Debye
        Dipole field         -0.0001 Ry au
 
        Potential amp.        0.0095 Ry
        Total length         73.7482 bohr
 
 
     Adding external electric field

     Computed dipole along edir(3) : 
        Dipole               -0.0652 Ry au,         -0.1658 Debye
        Dipole field         -0.0001 Ry au
 
        Potential amp.        0.0095 Ry
        Total length         73.7482 bohr
 
 
     Magnetic moment per site:
     atom:    1    charge:    3.2133    magn:    1.0417    constr:    0.0000
     atom:    2    charge:    3.2294    magn:    1.0825    constr:    0.0000
     atom:    3    charge:    3.2294    magn:    1.0825    constr:    0.0000
     atom:    4    charge:    3.2045    magn:    1.0826    constr:    0.0000
     atom:    5    charge:    3.2046    magn:    1.0826    constr:    0.0000
     atom:    6    charge:    3.2016    magn:    1.0865    constr:    0.0000
     atom:    7    charge:    3.1792    magn:    0.9388    constr:    0.0000
     atom:    8    charge:    3.1994    magn:    1.0763    constr:    0.0000
     atom:    9    charge:    3.1994    magn:    1.0763    constr:    0.0000
     atom:   10    charge:    3.1930    magn:    1.0689    constr:    0.0000
     atom:   11    charge:    3.1930    magn:    1.0689    constr:    0.0000
     atom:   12    charge:    3.1912    magn:    1.0692    constr:    0.0000
     atom:   13    charge:    3.1956    magn:    1.0697    constr:    0.0000
     atom:   14    charge:    3.1952    magn:    1.0684    constr:    0.0000
     atom:   15    charge:    3.1952    magn:    1.0684    constr:    0.0000
     atom:   16    charge:    3.1963    magn:    1.0603    constr:    0.0000
     atom:   17    charge:    3.1963    magn:    1.0603    constr:    0.0000
     atom:   18    charge:    3.1953    magn:    1.0700    constr:    0.0000
     atom:   19    charge:    3.1960    magn:    1.0647    constr:    0.0000
     atom:   20    charge:    3.1953    magn:    1.0645    constr:    0.0000
     atom:   21    charge:    3.1952    magn:    1.0645    constr:    0.0000
     atom:   22    charge:    3.1945    magn:    1.0678    constr:    0.0000
     atom:   23    charge:    3.1945    magn:    1.0678    constr:    0.0000
     atom:   24    charge:    3.1942    magn:    1.0688    constr:    0.0000
     atom:   25    charge:    3.1916    magn:    1.0691    constr:    0.0000
     atom:   26    charge:    3.1912    magn:    1.0674    constr:    0.0000
     atom:   27    charge:    3.1912    magn:    1.0674    constr:    0.0000
     atom:   28    charge:    3.1941    magn:    1.0716    constr:    0.0000
     atom:   29    charge:    3.1941    magn:    1.0716    constr:    0.0000
     atom:   30    charge:    3.1937    magn:    1.0700    constr:    0.0000
     atom:   31    charge:    3.2018    magn:    1.0820    constr:    0.0000
     atom:   32    charge:    3.2022    magn:    1.0801    constr:    0.0000
     atom:   33    charge:    3.2022    magn:    1.0801    constr:    0.0000
     atom:   34    charge:    3.2262    magn:    1.0736    constr:    0.0000
     atom:   35    charge:    3.2262    magn:    1.0736    constr:    0.0000
     atom:   36    charge:    3.2271    magn:    1.0718    constr:    0.0000
     atom:   37    charge:    0.6008    magn:    0.3046    constr:    0.0000

     total cpu time spent up to now is     1135.9 secs

     total energy              =   -2896.75883178 Ry
     Harris-Foulkes estimate   =   -2896.52284295 Ry
     estimated scf accuracy    <       1.18016644 Ry

     total magnetization       =    68.76 Bohr mag/cell
     absolute magnetization    =    70.62 Bohr mag/cell

     iteration # 11     ecut=    44.10 Ry     beta=0.10
     Davidson diagonalization with overlap
     ethr =  2.14E-04,  avg # of iterations =  2.3

     negative rho (up, down):  1.456E-02 1.370E-02
 
     Adding external electric field

     Computed dipole along edir(3) : 
        Dipole               -0.1042 Ry au,         -0.2649 Debye
        Dipole field         -0.0001 Ry au
 
        Potential amp.        0.0152 Ry
        Total length         73.7482 bohr
 
 
     Adding external electric field

     Computed dipole along edir(3) : 
        Dipole               -0.1042 Ry au,         -0.2649 Debye
        Dipole field         -0.0001 Ry au
 
        Potential amp.        0.0152 Ry
        Total length         73.7482 bohr
 
 
     Magnetic moment per site:
     atom:    1    charge:    3.2092    magn:    0.9791    constr:    0.0000
     atom:    2    charge:    3.2268    magn:    1.0323    constr:    0.0000
     atom:    3    charge:    3.2268    magn:    1.0323    constr:    0.0000
     atom:    4    charge:    3.2060    magn:    1.0284    constr:    0.0000
     atom:    5    charge:    3.2060    magn:    1.0284    constr:    0.0000
     atom:    6    charge:    3.2051    magn:    1.0329    constr:    0.0000
     atom:    7    charge:    3.1811    magn:    0.8477    constr:    0.0000
     atom:    8    charge:    3.2017    magn:    1.0196    constr:    0.0000
     atom:    9    charge:    3.2017    magn:    1.0196    constr:    0.0000
     atom:   10    charge:    3.1936    magn:    1.0133    constr:    0.0000
     atom:   11    charge:    3.1936    magn:    1.0133    constr:    0.0000
     atom:   12    charge:    3.1945    magn:    1.0130    constr:    0.0000
     atom:   13    charge:    3.1957    magn:    1.0133    constr:    0.0000
     atom:   14    charge:    3.1980    magn:    1.0108    constr:    0.0000
     atom:   15    charge:    3.1980    magn:    1.0108    constr:    0.0000
     atom:   16    charge:    3.1958    magn:    1.0033    constr:    0.0000
     atom:   17    charge:    3.1958    magn:    1.0033    constr:    0.0000
     atom:   18    charge:    3.1955    magn:    1.0122    constr:    0.0000
     atom:   19    charge:    3.1952    magn:    1.0091    constr:    0.0000
     atom:   20    charge:    3.1957    magn:    1.0072    constr:    0.0000
     atom:   21    charge:    3.1957    magn:    1.0072    constr:    0.0000
     atom:   22    charge:    3.1969    magn:    1.0103    constr:    0.0000
     atom:   23    charge:    3.1969    magn:    1.0103    constr:    0.0000
     atom:   24    charge:    3.1968    magn:    1.0117    constr:    0.0000
     atom:   25    charge:    3.1934    magn:    1.0129    constr:    0.0000
     atom:   26    charge:    3.1942    magn:    1.0104    constr:    0.0000
     atom:   27    charge:    3.1942    magn:    1.0104    constr:    0.0000
     atom:   28    charge:    3.1966    magn:    1.0158    constr:    0.0000
     atom:   29    charge:    3.1966    magn:    1.0158    constr:    0.0000
     atom:   30    charge:    3.1968    magn:    1.0137    constr:    0.0000
     atom:   31    charge:    3.2044    magn:    1.0279    constr:    0.0000
     atom:   32    charge:    3.2045    magn:    1.0264    constr:    0.0000
     atom:   33    charge:    3.2045    magn:    1.0264    constr:    0.0000
     atom:   34    charge:    3.2236    magn:    1.0223    constr:    0.0000
     atom:   35    charge:    3.2236    magn:    1.0223    constr:    0.0000
     atom:   36    charge:    3.2237    magn:    1.0210    constr:    0.0000
     atom:   37    charge:    0.5947    magn:    0.2494    constr:    0.0000

     total cpu time spent up to now is     1233.8 secs

     total energy              =   -2896.86910252 Ry
     Harris-Foulkes estimate   =   -2896.80645887 Ry
     estimated scf accuracy    <       3.16214099 Ry

     total magnetization       =    66.61 Bohr mag/cell
     absolute magnetization    =    69.68 Bohr mag/cell

     iteration # 12     ecut=    44.10 Ry     beta=0.10
     Davidson diagonalization with overlap
     ethr =  2.14E-04,  avg # of iterations =  8.8

     negative rho (up, down):  1.223E-02 1.248E-02
 
     Adding external electric field

     Computed dipole along edir(3) : 
        Dipole               -0.1095 Ry au,         -0.2782 Debye
        Dipole field         -0.0001 Ry au
 
        Potential amp.        0.0160 Ry
        Total length         73.7482 bohr
 
 
     Adding external electric field

     Computed dipole along edir(3) : 
        Dipole               -0.1095 Ry au,         -0.2782 Debye
        Dipole field         -0.0001 Ry au
 
        Potential amp.        0.0160 Ry
        Total length         73.7482 bohr
 
 
     Magnetic moment per site:
     atom:    1    charge:    3.2050    magn:    0.9853    constr:    0.0000
     atom:    2    charge:    3.2187    magn:    1.0427    constr:    0.0000
     atom:    3    charge:    3.2187    magn:    1.0427    constr:    0.0000
     atom:    4    charge:    3.2059    magn:    1.0341    constr:    0.0000
     atom:    5    charge:    3.2059    magn:    1.0341    constr:    0.0000
     atom:    6    charge:    3.2022    magn:    1.0409    constr:    0.0000
     atom:    7    charge:    3.1874    magn:    0.8473    constr:    0.0000
     atom:    8    charge:    3.2035    magn:    1.0240    constr:    0.0000
     atom:    9    charge:    3.2035    magn:    1.0240    constr:    0.0000
     atom:   10    charge:    3.1981    magn:    1.0171    constr:    0.0000
     atom:   11    charge:    3.1981    magn:    1.0171    constr:    0.0000
     atom:   12    charge:    3.1957    magn:    1.0196    constr:    0.0000
     atom:   13    charge:    3.1992    magn:    1.0168    constr:    0.0000
     atom:   14    charge:    3.1973    magn:    1.0176    constr:    0.0000
     atom:   15    charge:    3.1973    magn:    1.0176    constr:    0.0000
     atom:   16    charge:    3.1989    magn:    1.0070    constr:    0.0000
     atom:   17    charge:    3.1989    magn:    1.0070    constr:    0.0000
     atom:   18    charge:    3.1986    magn:    1.0151    constr:    0.0000
     atom:   19    charge:    3.1998    magn:    1.0120    constr:    0.0000
     atom:   20    charge:    3.1986    magn:    1.0110    constr:    0.0000
     atom:   21    charge:    3.1986    magn:    1.0110    constr:    0.0000
     atom:   22    charge:    3.1986    magn:    1.0156    constr:    0.0000
     atom:   23    charge:    3.1986    magn:    1.0156    constr:    0.0000
     atom:   24    charge:    3.1979    magn:    1.0176    constr:    0.0000
     atom:   25    charge:    3.1987    magn:    1.0162    constr:    0.0000
     atom:   26    charge:    3.1976    magn:    1.0152    constr:    0.0000
     atom:   27    charge:    3.1976    magn:    1.0153    constr:    0.0000
     atom:   28    charge:    3.2004    magn:    1.0196    constr:    0.0000
     atom:   29    charge:    3.2004    magn:    1.0196    constr:    0.0000
     atom:   30    charge:    3.1992    magn:    1.0186    constr:    0.0000
     atom:   31    charge:    3.2026    magn:    1.0352    constr:    0.0000
     atom:   32    charge:    3.2019    magn:    1.0345    constr:    0.0000
     atom:   33    charge:    3.2018    magn:    1.0345    constr:    0.0000
     atom:   34    charge:    3.2163    magn:    1.0323    constr:    0.0000
     atom:   35    charge:    3.2163    magn:    1.0323    constr:    0.0000
     atom:   36    charge:    3.2160    magn:    1.0314    constr:    0.0000
     atom:   37    charge:    0.5910    magn:    0.2463    constr:    0.0000

     total cpu time spent up to now is     1360.4 secs

     total energy              =   -2896.84327306 Ry
     Harris-Foulkes estimate   =   -2896.90167734 Ry
     estimated scf accuracy    <       0.76217012 Ry

     total magnetization       =    65.07 Bohr mag/cell
     absolute magnetization    =    69.16 Bohr mag/cell

     iteration # 13     ecut=    44.10 Ry     beta=0.10
     Davidson diagonalization with overlap
     ethr =  2.14E-04,  avg # of iterations =  1.1

     negative rho (up, down):  1.459E-02 1.448E-02
 
     Adding external electric field

     Computed dipole along edir(3) : 
        Dipole               -0.1409 Ry au,         -0.3581 Debye
        Dipole field         -0.0001 Ry au
 
        Potential amp.        0.0206 Ry
        Total length         73.7482 bohr
 
 
     Adding external electric field

     Computed dipole along edir(3) : 
        Dipole               -0.1409 Ry au,         -0.3581 Debye
        Dipole field         -0.0001 Ry au
 
        Potential amp.        0.0206 Ry
        Total length         73.7482 bohr
 
 
     Magnetic moment per site:
     atom:    1    charge:    3.2038    magn:    0.9355    constr:    0.0000
     atom:    2    charge:    3.2173    magn:    1.0061    constr:    0.0000
     atom:    3    charge:    3.2173    magn:    1.0061    constr:    0.0000
     atom:    4    charge:    3.2072    magn:    0.9959    constr:    0.0000
     atom:    5    charge:    3.2072    magn:    0.9959    constr:    0.0000
     atom:    6    charge:    3.2045    magn:    1.0043    constr:    0.0000
     atom:    7    charge:    3.1870    magn:    0.7720    constr:    0.0000
     atom:    8    charge:    3.2034    magn:    0.9851    constr:    0.0000
     atom:    9    charge:    3.2034    magn:    0.9851    constr:    0.0000
     atom:   10    charge:    3.2002    magn:    0.9773    constr:    0.0000
     atom:   11    charge:    3.2002    magn:    0.9773    constr:    0.0000
     atom:   12    charge:    3.1993    magn:    0.9800    constr:    0.0000
     atom:   13    charge:    3.2008    magn:    0.9758    constr:    0.0000
     atom:   14    charge:    3.2005    magn:    0.9762    constr:    0.0000
     atom:   15    charge:    3.2005    magn:    0.9762    constr:    0.0000
     atom:   16    charge:    3.1993    magn:    0.9666    constr:    0.0000
     atom:   17    charge:    3.1993    magn:    0.9666    constr:    0.0000
     atom:   18    charge:    3.2002    magn:    0.9725    constr:    0.0000
     atom:   19    charge:    3.1996    magn:    0.9726    constr:    0.0000
     atom:   20    charge:    3.1998    magn:    0.9697    constr:    0.0000
     atom:   21    charge:    3.1998    magn:    0.9697    constr:    0.0000
     atom:   22    charge:    3.2005    magn:    0.9749    constr:    0.0000
     atom:   23    charge:    3.2005    magn:    0.9749    constr:    0.0000
     atom:   24    charge:    3.2010    magn:    0.9766    constr:    0.0000
     atom:   25    charge:    3.2002    magn:    0.9764    constr:    0.0000
     atom:   26    charge:    3.2003    magn:    0.9752    constr:    0.0000
     atom:   27    charge:    3.2003    magn:    0.9752    constr:    0.0000
     atom:   28    charge:    3.2007    magn:    0.9826    constr:    0.0000
     atom:   29    charge:    3.2007    magn:    0.9826    constr:    0.0000
     atom:   30    charge:    3.2006    magn:    0.9810    constr:    0.0000
     atom:   31    charge:    3.2054    magn:    0.9974    constr:    0.0000
     atom:   32    charge:    3.2057    magn:    0.9965    constr:    0.0000
     atom:   33    charge:    3.2057    magn:    0.9965    constr:    0.0000
     atom:   34    charge:    3.2161    magn:    0.9956    constr:    0.0000
     atom:   35    charge:    3.2161    magn:    0.9956    constr:    0.0000
     atom:   36    charge:    3.2165    magn:    0.9944    constr:    0.0000
     atom:   37    charge:    0.5827    magn:    0.1942    constr:    0.0000

     total cpu time spent up to now is     1453.9 secs

     total energy              =   -2896.91773690 Ry
     Harris-Foulkes estimate   =   -2896.87330871 Ry
     estimated scf accuracy    <       0.15894963 Ry

     total magnetization       =    64.89 Bohr mag/cell
     absolute magnetization    =    68.92 Bohr mag/cell

     iteration # 14     ecut=    44.10 Ry     beta=0.10
     Davidson diagonalization with overlap
     ethr =  4.85E-05,  avg # of iterations =  6.6

     negative rho (up, down):  1.393E-02 1.431E-02
 
     Adding external electric field

     Computed dipole along edir(3) : 
        Dipole               -0.1607 Ry au,         -0.4083 Debye
        Dipole field         -0.0002 Ry au
 
        Potential amp.        0.0235 Ry
        Total length         73.7482 bohr
 
 
     Adding external electric field

     Computed dipole along edir(3) : 
        Dipole               -0.1607 Ry au,         -0.4083 Debye
        Dipole field         -0.0002 Ry au
 
        Potential amp.        0.0235 Ry
        Total length         73.7482 bohr
 
 
     Magnetic moment per site:
     atom:    1    charge:    3.2045    magn:    0.9255    constr:    0.0000
     atom:    2    charge:    3.2174    magn:    1.0005    constr:    0.0000
     atom:    3    charge:    3.2174    magn:    1.0005    constr:    0.0000
     atom:    4    charge:    3.2073    magn:    0.9896    constr:    0.0000
     atom:    5    charge:    3.2073    magn:    0.9896    constr:    0.0000
     atom:    6    charge:    3.2052    magn:    0.9982    constr:    0.0000
     atom:    7    charge:    3.1868    magn:    0.7547    constr:    0.0000
     atom:    8    charge:    3.2037    magn:    0.9783    constr:    0.0000
     atom:    9    charge:    3.2037    magn:    0.9783    constr:    0.0000
     atom:   10    charge:    3.1998    magn:    0.9707    constr:    0.0000
     atom:   11    charge:    3.1998    magn:    0.9707    constr:    0.0000
     atom:   12    charge:    3.1999    magn:    0.9730    constr:    0.0000
     atom:   13    charge:    3.2006    magn:    0.9686    constr:    0.0000
     atom:   14    charge:    3.2015    magn:    0.9684    constr:    0.0000
     atom:   15    charge:    3.2014    magn:    0.9684    constr:    0.0000
     atom:   16    charge:    3.1996    magn:    0.9590    constr:    0.0000
     atom:   17    charge:    3.1996    magn:    0.9591    constr:    0.0000
     atom:   18    charge:    3.1990    magn:    0.9656    constr:    0.0000
     atom:   19    charge:    3.1997    magn:    0.9653    constr:    0.0000
     atom:   20    charge:    3.1993    magn:    0.9627    constr:    0.0000
     atom:   21    charge:    3.1993    magn:    0.9627    constr:    0.0000
     atom:   22    charge:    3.2014    magn:    0.9673    constr:    0.0000
     atom:   23    charge:    3.2014    magn:    0.9673    constr:    0.0000
     atom:   24    charge:    3.2005    magn:    0.9700    constr:    0.0000
     atom:   25    charge:    3.2007    magn:    0.9690    constr:    0.0000
     atom:   26    charge:    3.2001    magn:    0.9684    constr:    0.0000
     atom:   27    charge:    3.2001    magn:    0.9685    constr:    0.0000
     atom:   28    charge:    3.2015    magn:    0.9761    constr:    0.0000
     atom:   29    charge:    3.2015    magn:    0.9761    constr:    0.0000
     atom:   30    charge:    3.2007    magn:    0.9751    constr:    0.0000
     atom:   31    charge:    3.2066    magn:    0.9907    constr:    0.0000
     atom:   32    charge:    3.2056    magn:    0.9910    constr:    0.0000
     atom:   33    charge:    3.2056    magn:    0.9910    constr:    0.0000
     atom:   34    charge:    3.2176    magn:    0.9891    constr:    0.0000
     atom:   35    charge:    3.2176    magn:    0.9891    constr:    0.0000
     atom:   36    charge:    3.2160    magn:    0.9897    constr:    0.0000
     atom:   37    charge:    0.5813    magn:    0.1809    constr:    0.0000

     total cpu time spent up to now is     1572.1 secs

     total energy              =   -2896.93490826 Ry
     Harris-Foulkes estimate   =   -2896.92911119 Ry
     estimated scf accuracy    <       0.03191533 Ry

     total magnetization       =    63.53 Bohr mag/cell
     absolute magnetization    =    68.41 Bohr mag/cell

     iteration # 15     ecut=    44.10 Ry     beta=0.10
     Davidson diagonalization with overlap
     ethr =  9.73E-06,  avg # of iterations = 10.1

     negative rho (up, down):  1.337E-02 1.429E-02
 
     Adding external electric field

     Computed dipole along edir(3) : 
        Dipole               -0.1294 Ry au,         -0.3289 Debye
        Dipole field         -0.0001 Ry au
 
        Potential amp.        0.0189 Ry
        Total length         73.7482 bohr
 
 
     Adding external electric field

     Computed dipole along edir(3) : 
        Dipole               -0.1294 Ry au,         -0.3289 Debye
        Dipole field         -0.0001 Ry au
 
        Potential amp.        0.0189 Ry
        Total length         73.7482 bohr
 
 
     Magnetic moment per site:
     atom:    1    charge:    3.2052    magn:    0.9136    constr:    0.0000
     atom:    2    charge:    3.2179    magn:    0.9946    constr:    0.0000
     atom:    3    charge:    3.2179    magn:    0.9946    constr:    0.0000
     atom:    4    charge:    3.2079    magn:    0.9820    constr:    0.0000
     atom:    5    charge:    3.2079    magn:    0.9821    constr:    0.0000
     atom:    6    charge:    3.2061    magn:    0.9914    constr:    0.0000
     atom:    7    charge:    3.1866    magn:    0.7326    constr:    0.0000
     atom:    8    charge:    3.2040    magn:    0.9709    constr:    0.0000
     atom:    9    charge:    3.2040    magn:    0.9709    constr:    0.0000
     atom:   10    charge:    3.1997    magn:    0.9629    constr:    0.0000
     atom:   11    charge:    3.1997    magn:    0.9629    constr:    0.0000
     atom:   12    charge:    3.2000    magn:    0.9653    constr:    0.0000
     atom:   13    charge:    3.1999    magn:    0.9607    constr:    0.0000
     atom:   14    charge:    3.2010    magn:    0.9603    constr:    0.0000
     atom:   15    charge:    3.2010    magn:    0.9603    constr:    0.0000
     atom:   16    charge:    3.1992    magn:    0.9510    constr:    0.0000
     atom:   17    charge:    3.1992    magn:    0.9510    constr:    0.0000
     atom:   18    charge:    3.1985    magn:    0.9570    constr:    0.0000
     atom:   19    charge:    3.1993    magn:    0.9573    constr:    0.0000
     atom:   20    charge:    3.1991    magn:    0.9544    constr:    0.0000
     atom:   21    charge:    3.1991    magn:    0.9544    constr:    0.0000
     atom:   22    charge:    3.2010    magn:    0.9594    constr:    0.0000
     atom:   23    charge:    3.2010    magn:    0.9594    constr:    0.0000
     atom:   24    charge:    3.2004    magn:    0.9623    constr:    0.0000
     atom:   25    charge:    3.2006    magn:    0.9608    constr:    0.0000
     atom:   26    charge:    3.2006    magn:    0.9603    constr:    0.0000
     atom:   27    charge:    3.2006    magn:    0.9603    constr:    0.0000
     atom:   28    charge:    3.2026    magn:    0.9688    constr:    0.0000
     atom:   29    charge:    3.2026    magn:    0.9688    constr:    0.0000
     atom:   30    charge:    3.2023    magn:    0.9674    constr:    0.0000
     atom:   31    charge:    3.2074    magn:    0.9839    constr:    0.0000
     atom:   32    charge:    3.2071    magn:    0.9837    constr:    0.0000
     atom:   33    charge:    3.2071    magn:    0.9837    constr:    0.0000
     atom:   34    charge:    3.2177    magn:    0.9836    constr:    0.0000
     atom:   35    charge:    3.2177    magn:    0.9836    constr:    0.0000
     atom:   36    charge:    3.2173    magn:    0.9834    constr:    0.0000
     atom:   37    charge:    0.5797    magn:    0.1633    constr:    0.0000

     total cpu time spent up to now is     1710.8 secs

     total energy              =   -2896.94259057 Ry
     Harris-Foulkes estimate   =   -2896.93702389 Ry
     estimated scf accuracy    <       0.03263532 Ry

     total magnetization       =    63.24 Bohr mag/cell
     absolute magnetization    =    68.34 Bohr mag/cell

     iteration # 16     ecut=    44.10 Ry     beta=0.10
     Davidson diagonalization with overlap
     ethr =  9.73E-06,  avg # of iterations =  1.0

     negative rho (up, down):  1.240E-02 1.389E-02
 
     Adding external electric field

     Computed dipole along edir(3) : 
        Dipole               -0.1769 Ry au,         -0.4495 Debye
        Dipole field         -0.0002 Ry au
 
        Potential amp.        0.0258 Ry
        Total length         73.7482 bohr
 
 
     Adding external electric field

     Computed dipole along edir(3) : 
        Dipole               -0.1769 Ry au,         -0.4495 Debye
        Dipole field         -0.0002 Ry au
 
        Potential amp.        0.0258 Ry
        Total length         73.7482 bohr
 
 
     Magnetic moment per site:
     atom:    1    charge:    3.2052    magn:    0.9149    constr:    0.0000
     atom:    2    charge:    3.2178    magn:    0.9953    constr:    0.0000
     atom:    3    charge:    3.2178    magn:    0.9953    constr:    0.0000
     atom:    4    charge:    3.2082    magn:    0.9828    constr:    0.0000
     atom:    5    charge:    3.2082    magn:    0.9828    constr:    0.0000
     atom:    6    charge:    3.2062    magn:    0.9923    constr:    0.0000
     atom:    7    charge:    3.1871    magn:    0.7346    constr:    0.0000
     atom:    8    charge:    3.2042    magn:    0.9718    constr:    0.0000
     atom:    9    charge:    3.2042    magn:    0.9718    constr:    0.0000
     atom:   10    charge:    3.2001    magn:    0.9637    constr:    0.0000
     atom:   11    charge:    3.2001    magn:    0.9637    constr:    0.0000
     atom:   12    charge:    3.2001    magn:    0.9664    constr:    0.0000
     atom:   13    charge:    3.2003    magn:    0.9615    constr:    0.0000
     atom:   14    charge:    3.2010    magn:    0.9615    constr:    0.0000
     atom:   15    charge:    3.2010    magn:    0.9615    constr:    0.0000
     atom:   16    charge:    3.1994    magn:    0.9520    constr:    0.0000
     atom:   17    charge:    3.1994    magn:    0.9520    constr:    0.0000
     atom:   18    charge:    3.1991    magn:    0.9577    constr:    0.0000
     atom:   19    charge:    3.1995    magn:    0.9583    constr:    0.0000
     atom:   20    charge:    3.1994    magn:    0.9554    constr:    0.0000
     atom:   21    charge:    3.1994    magn:    0.9554    constr:    0.0000
     atom:   22    charge:    3.2009    magn:    0.9607    constr:    0.0000
     atom:   23    charge:    3.2009    magn:    0.9607    constr:    0.0000
     atom:   24    charge:    3.2006    magn:    0.9633    constr:    0.0000
     atom:   25    charge:    3.2005    magn:    0.9620    constr:    0.0000
     atom:   26    charge:    3.2006    magn:    0.9615    constr:    0.0000
     atom:   27    charge:    3.2006    magn:    0.9615    constr:    0.0000
     atom:   28    charge:    3.2023    magn:    0.9700    constr:    0.0000
     atom:   29    charge:    3.2023    magn:    0.9700    constr:    0.0000
     atom:   30    charge:    3.2021    magn:    0.9686    constr:    0.0000
     atom:   31    charge:    3.2071    magn:    0.9851    constr:    0.0000
     atom:   32    charge:    3.2070    magn:    0.9848    constr:    0.0000
     atom:   33    charge:    3.2070    magn:    0.9848    constr:    0.0000
     atom:   34    charge:    3.2175    magn:    0.9846    constr:    0.0000
     atom:   35    charge:    3.2175    magn:    0.9846    constr:    0.0000
     atom:   36    charge:    3.2174    magn:    0.9841    constr:    0.0000
     atom:   37    charge:    0.5794    magn:    0.1647    constr:    0.0000

     total cpu time spent up to now is     1803.7 secs

     total energy              =   -2896.94092970 Ry
     Harris-Foulkes estimate   =   -2896.94633262 Ry
     estimated scf accuracy    <       0.41828218 Ry

     total magnetization       =    62.93 Bohr mag/cell
     absolute magnetization    =    68.26 Bohr mag/cell

     iteration # 17     ecut=    44.10 Ry     beta=0.10
     Davidson diagonalization with overlap
     ethr =  9.73E-06,  avg # of iterations =  1.0

     negative rho (up, down):  1.159E-02 1.376E-02
 
     Adding external electric field

     Computed dipole along edir(3) : 
        Dipole               -0.1670 Ry au,         -0.4245 Debye
        Dipole field         -0.0002 Ry au
 
        Potential amp.        0.0244 Ry
        Total length         73.7482 bohr
 
 
     Adding external electric field

     Computed dipole along edir(3) : 
        Dipole               -0.1670 Ry au,         -0.4245 Debye
        Dipole field         -0.0002 Ry au
 
        Potential amp.        0.0244 Ry
        Total length         73.7482 bohr
 
 
     Magnetic moment per site:
     atom:    1    charge:    3.2055    magn:    0.9101    constr:    0.0000
     atom:    2    charge:    3.2184    magn:    0.9941    constr:    0.0000
     atom:    3    charge:    3.2184    magn:    0.9941    constr:    0.0000
     atom:    4    charge:    3.2083    magn:    0.9807    constr:    0.0000
     atom:    5    charge:    3.2083    magn:    0.9807    constr:    0.0000
     atom:    6    charge:    3.2067    magn:    0.9905    constr:    0.0000
     atom:    7    charge:    3.1869    magn:    0.7231    constr:    0.0000
     atom:    8    charge:    3.2041    magn:    0.9700    constr:    0.0000
     atom:    9    charge:    3.2041    magn:    0.9700    constr:    0.0000
     atom:   10    charge:    3.2003    magn:    0.9611    constr:    0.0000
     atom:   11    charge:    3.2003    magn:    0.9611    constr:    0.0000
     atom:   12    charge:    3.2001    magn:    0.9640    constr:    0.0000
     atom:   13    charge:    3.2006    magn:    0.9586    constr:    0.0000
     atom:   14    charge:    3.2009    magn:    0.9588    constr:    0.0000
     atom:   15    charge:    3.2009    magn:    0.9588    constr:    0.0000
     atom:   16    charge:    3.1994    magn:    0.9493    constr:    0.0000
     atom:   17    charge:    3.1994    magn:    0.9493    constr:    0.0000
     atom:   18    charge:    3.1997    magn:    0.9543    constr:    0.0000
     atom:   19    charge:    3.1996    magn:    0.9556    constr:    0.0000
     atom:   20    charge:    3.1995    magn:    0.9525    constr:    0.0000
     atom:   21    charge:    3.1995    magn:    0.9525    constr:    0.0000
     atom:   22    charge:    3.2006    magn:    0.9583    constr:    0.0000
     atom:   23    charge:    3.2006    magn:    0.9583    constr:    0.0000
     atom:   24    charge:    3.2006    magn:    0.9610    constr:    0.0000
     atom:   25    charge:    3.2005    magn:    0.9593    constr:    0.0000
     atom:   26    charge:    3.2004    magn:    0.9592    constr:    0.0000
     atom:   27    charge:    3.2004    magn:    0.9592    constr:    0.0000
     atom:   28    charge:    3.2022    magn:    0.9686    constr:    0.0000
     atom:   29    charge:    3.2022    magn:    0.9686    constr:    0.0000
     atom:   30    charge:    3.2019    magn:    0.9673    constr:    0.0000
     atom:   31    charge:    3.2077    magn:    0.9832    constr:    0.0000
     atom:   32    charge:    3.2074    magn:    0.9831    constr:    0.0000
     atom:   33    charge:    3.2074    magn:    0.9831    constr:    0.0000
     atom:   34    charge:    3.2183    magn:    0.9834    constr:    0.0000
     atom:   35    charge:    3.2183    magn:    0.9834    constr:    0.0000
     atom:   36    charge:    3.2177    magn:    0.9835    constr:    0.0000
     atom:   37    charge:    0.5783    magn:    0.1543    constr:    0.0000

     total cpu time spent up to now is     1896.3 secs

     total energy              =   -2896.94655783 Ry
     Harris-Foulkes estimate   =   -2896.94408751 Ry
     estimated scf accuracy    <       0.02971953 Ry

     total magnetization       =    62.92 Bohr mag/cell
     absolute magnetization    =    68.25 Bohr mag/cell

     iteration # 18     ecut=    44.10 Ry     beta=0.10
     Davidson diagonalization with overlap
     ethr =  9.06E-06,  avg # of iterations =  1.0

     negative rho (up, down):  1.089E-02 1.385E-02
 
     Adding external electric field

     Computed dipole along edir(3) : 
        Dipole               -0.1737 Ry au,         -0.4416 Debye
        Dipole field         -0.0002 Ry au
 
        Potential amp.        0.0254 Ry
        Total length         73.7482 bohr
 
 
     Adding external electric field

     Computed dipole along edir(3) : 
        Dipole               -0.1737 Ry au,         -0.4416 Debye
        Dipole field         -0.0002 Ry au
 
        Potential amp.        0.0254 Ry
        Total length         73.7482 bohr
 
 
     Magnetic moment per site:
     atom:    1    charge:    3.2072    magn:    0.8981    constr:    0.0000
     atom:    2    charge:    3.2198    magn:    0.9912    constr:    0.0000
     atom:    3    charge:    3.2198    magn:    0.9912    constr:    0.0000
     atom:    4    charge:    3.2092    magn:    0.9750    constr:    0.0000
     atom:    5    charge:    3.2092    magn:    0.9750    constr:    0.0000
     atom:    6    charge:    3.2085    magn:    0.9857    constr:    0.0000
     atom:    7    charge:    3.1868    magn:    0.6960    constr:    0.0000
     atom:    8    charge:    3.2046    magn:    0.9651    constr:    0.0000
     atom:    9    charge:    3.2046    magn:    0.9651    constr:    0.0000
     atom:   10    charge:    3.1997    magn:    0.9555    constr:    0.0000
     atom:   11    charge:    3.1997    magn:    0.9555    constr:    0.0000
     atom:   12    charge:    3.2000    magn:    0.9582    constr:    0.0000
     atom:   13    charge:    3.1998    magn:    0.9526    constr:    0.0000
     atom:   14    charge:    3.2003    magn:    0.9525    constr:    0.0000
     atom:   15    charge:    3.2003    magn:    0.9525    constr:    0.0000
     atom:   16    charge:    3.1985    magn:    0.9435    constr:    0.0000
     atom:   17    charge:    3.1985    magn:    0.9435    constr:    0.0000
     atom:   18    charge:    3.1988    magn:    0.9478    constr:    0.0000
     atom:   19    charge:    3.1987    magn:    0.9497    constr:    0.0000
[...]
    -2.3705  -2.3465  -2.3353  -2.2986  -2.2874  -2.2730  -2.2492  -2.2100
    -2.1901  -2.1824  -2.1528  -2.1428  -2.1335  -2.1048  -2.0948  -2.0846
    -2.0692  -2.0435  -2.0319  -2.0080  -1.9912  -1.9768  -1.9638  -1.9582
    -1.9349  -1.9206  -1.9036  -1.8781  -1.8641  -1.8391  -1.8272  -1.8047
    -1.7801  -1.7646  -1.7425  -1.7311  -1.7135  -1.6902  -1.6801  -1.6552
    -1.6243  -1.6131  -1.5866  -1.5767  -1.5367  -1.5050  -1.4897  -1.4729
    -1.4580  -1.4451  -1.4176  -1.4138  -1.3938  -1.3723  -1.3544  -1.3429
    -1.3196  -1.2983  -1.2650  -1.2497  -1.2288  -1.2086  -1.1147  -0.9518
    -0.7483  -0.5913  -0.3810  -0.2459  -0.1307   0.1324   0.1894   0.2775
     0.4100   0.6007   0.9113   1.0081   1.1367   1.2245   1.5847   1.6659
     1.8047   2.0146   2.1488   2.2741   2.4082   2.7633   2.8297   2.9547
     3.3004   3.4165   3.7875   4.0377   4.1340   4.1812   4.2440   4.3957
     4.4601   4.5875   4.7649   4.7962   4.9059   4.9984   5.0641   5.0836
     5.1191   5.3079   5.3544   5.4381   5.4732   5.5078   5.5538   5.6372
     5.7245   5.7970   5.8645   6.0469   6.0958   6.1541   6.1935   6.2375
     6.2804   6.3341   6.3731   6.3942   6.5354   6.5611   6.6109   6.6451
     6.7198   6.7986   6.8587   6.9211   6.9752   7.0298   7.1053   7.1890

 ------ SPIN DOWN ----------


          k = 0.0000 0.0000 0.0000 ( 62705 PWs)   bands (ev):

   -11.7120  -8.8851  -7.5731  -6.4372  -6.4073  -5.9507  -5.7032  -5.6039
    -5.4569  -5.3284  -5.1952  -4.6792  -4.5806  -4.5206  -4.4511  -4.2419
    -4.2270  -4.2103  -4.1852  -4.1458  -4.0506  -3.9595  -3.9490  -3.8323
    -3.8086  -3.7368  -3.7313  -3.6642  -3.6113  -3.5225  -3.4647  -3.4211
    -3.4014  -3.3625  -3.3396  -3.3332  -3.2963  -3.2826  -3.1980  -3.1418
    -3.0997  -3.0890  -3.0248  -3.0001  -2.8926  -2.8714  -2.8703  -2.8219
    -2.6992  -2.6840  -2.5712  -2.5381  -2.5195  -2.5070  -2.5067  -2.4612
    -2.4077  -2.4048  -2.3942  -2.3502  -2.3283  -2.2840  -2.2810  -2.2382
    -2.1987  -2.1866  -2.1683  -2.1565  -2.1150  -2.0945  -2.0494  -2.0489
    -2.0256  -1.9858  -1.9480  -1.9339  -1.9049  -1.8949  -1.8228  -1.7916
    -1.7484  -1.7284  -1.7141  -1.6911  -1.6719  -1.6457  -1.5742  -1.5567
    -1.5473  -1.5102  -1.4918  -1.4608  -1.4533  -1.4407  -1.4053  -1.3985
    -1.3747  -1.3542  -1.3431  -1.3325  -1.3282  -1.3146  -1.2911  -1.2737
    -1.2439  -1.2381  -1.2188  -1.1889  -1.1608  -1.1432  -1.1364  -1.1194
    -1.0794  -1.0311  -1.0238  -0.9890  -0.9793  -0.9153  -0.9041  -0.8377
    -0.8093  -0.8073  -0.7943  -0.7589  -0.7454  -0.7117  -0.6854  -0.6530
    -0.6300  -0.6142  -0.5490  -0.5137  -0.4899  -0.4880  -0.4505  -0.4129
    -0.3985  -0.3277  -0.3186  -0.2922  -0.2683  -0.2113  -0.1974  -0.1886
    -0.1787  -0.1625  -0.1379  -0.1291  -0.1032  -0.1001  -0.0742  -0.0716
    -0.0451  -0.0432  -0.0153   0.0116   0.0158   0.0265   0.0397   0.0655
     0.0671   0.0852   0.0951   0.1277   0.1490   0.1519   0.1802   0.2220
     0.2626   0.2639   0.2818   0.2947   0.3151   0.3234   0.3456   0.3523
     0.3668   0.3680   0.3975   0.4089   0.4207   0.4470   0.4631   0.4636
     0.4730   0.4770   0.4933   0.5121   0.5373   0.6262   0.6267   0.6684
     0.7120   0.7772   0.8170   1.1390   1.2506   1.2681   1.5246   1.6129
     1.6279   1.6931   1.8412   1.8926   1.9816   1.9956   2.0397   2.2740
     2.3451   2.4231   2.7130   2.7489   2.9554   3.1467   3.2314   3.2795
     3.3583   3.3944   3.5877   3.6177   3.8126   3.8605   4.1015   4.3129
     4.4171   4.5443   4.6072   4.6380   4.9686   5.1406   5.3150   5.4433
     5.4525   5.5696   5.7360   5.8073   5.8629   6.0018   6.0233   6.0344
     6.0765   6.0985   6.3426   6.3982   6.5313   6.5432   6.5685   6.5888
     6.6986   6.8161   6.9366   6.9410   7.0686   7.1516   7.1695   7.2290
     7.2448   7.2545   7.2687   7.3095   7.3783   7.4209   7.4419   7.5015

          k = 0.0000 0.0440 0.0000 ( 62728 PWs)   bands (ev):

   -11.7048  -8.5911  -7.7416  -7.3065  -6.5393  -5.7007  -5.5595  -5.2477
    -5.1342  -5.0686  -4.9139  -4.6900  -4.6301  -4.5674  -4.3929  -4.3624
    -4.3193  -4.1896  -4.1558  -4.1385  -4.0462  -4.0182  -3.9159  -3.8530
    -3.7999  -3.7407  -3.6812  -3.6530  -3.5829  -3.5732  -3.5256  -3.5063
    -3.4794  -3.4673  -3.4267  -3.3627  -3.3252  -3.3124  -3.2566  -3.1970
    -3.1495  -3.0989  -3.0663  -2.9889  -2.9422  -2.8538  -2.8278  -2.7858
    -2.7278  -2.6859  -2.5765  -2.5629  -2.5334  -2.5007  -2.4934  -2.4658
    -2.4568  -2.4324  -2.4234  -2.3588  -2.3200  -2.2954  -2.2588  -2.2473
    -2.2251  -2.2135  -2.1816  -2.1633  -2.1042  -2.0619  -2.0405  -2.0281
    -1.9881  -1.9593  -1.9448  -1.9164  -1.8783  -1.8502  -1.8300  -1.8106
    -1.8009  -1.7864  -1.7604  -1.7289  -1.7132  -1.6851  -1.6529  -1.6356
    -1.5907  -1.5612  -1.5529  -1.5166  -1.4940  -1.4769  -1.4546  -1.4348
    -1.3873  -1.3818  -1.3582  -1.3327  -1.3141  -1.3085  -1.2612  -1.2559
    -1.2366  -1.2268  -1.1809  -1.1545  -1.1529  -1.1091  -1.0651  -1.0405
    -1.0312  -0.9969  -0.9878  -0.9591  -0.9313  -0.9290  -0.9049  -0.8763
    -0.8578  -0.8269  -0.8089  -0.7768  -0.7619  -0.7405  -0.7288  -0.6969
    -0.6532  -0.6141  -0.6044  -0.5930  -0.5713  -0.5186  -0.4911  -0.4716
    -0.4084  -0.4011  -0.3747  -0.3729  -0.3313  -0.3183  -0.2863  -0.2700
    -0.2376  -0.2055  -0.1934  -0.1774  -0.1517  -0.1413  -0.1316  -0.1055
    -0.0690  -0.0484  -0.0382  -0.0101  -0.0060   0.0368   0.0637   0.0796
     0.1158   0.1359   0.1566   0.2075   0.2279   0.2573   0.2712   0.2839
     0.3026   0.3198   0.3225   0.3385   0.3497   0.3697   0.3974   0.4131
     0.4214   0.4401   0.4472   0.4643   0.4759   0.4955   0.5111   0.5126
     0.5299   0.5604   0.5667   0.6021   0.6160   0.7956   0.8282   0.9113
     0.9914   1.0615   1.1306   1.1687   1.2230   1.3457   1.4377   1.5267
     1.6788   1.7849   1.8869   2.0497   2.1492   2.2720   2.3583   2.5206
     2.5870   2.6796   2.7548   2.7728   2.9225   3.0085   3.0253   3.2022
     3.3394   3.4965   3.5958   3.6356   3.6681   3.7527   3.9463   3.9812
     4.1426   4.1562   4.3538   4.4121   4.5075   4.5604   4.6692   4.8452
     4.8641   5.0496   5.0918   5.2528   5.3669   5.4862   5.7549   5.8397
     6.0840   6.1835   6.3696   6.5688   6.6502   6.7179   6.7983   6.9538
     7.0505   7.1659   7.2018   7.2330   7.3163   7.3986   7.4117   7.4834
     7.5300   7.5757   7.6412   7.6993   7.7591   7.7814   7.8385   7.8739

          k = 0.0538 0.0000 0.0000 ( 62649 PWs)   bands (ev):

   -11.6847  -8.4457  -7.3496  -7.0329  -6.2535  -6.1004  -6.0663  -5.5283
    -5.3872  -5.3436  -5.1749  -5.1722  -5.0775  -4.7456  -4.7155  -4.5784
    -4.5172  -4.4643  -4.3010  -4.0404  -3.9848  -3.9241  -3.8800  -3.6765
    -3.6750  -3.6441  -3.6147  -3.5446  -3.4604  -3.3867  -3.3448  -3.2680
    -3.2412  -3.2368  -3.2103  -3.1926  -3.1844  -3.1721  -3.1368  -3.0966
    -3.0751  -3.0064  -2.9971  -2.9792  -2.9042  -2.8976  -2.8504  -2.7852
    -2.7464  -2.7323  -2.6955  -2.6571  -2.6184  -2.6090  -2.5278  -2.4653
    -2.4169  -2.4129  -2.3588  -2.3577  -2.3190  -2.3000  -2.2975  -2.2430
    -2.1973  -2.1943  -2.1236  -2.1201  -2.0819  -2.0628  -2.0152  -1.9866
    -1.9814  -1.9453  -1.8705  -1.8412  -1.8234  -1.7985  -1.7868  -1.7416
    -1.7144  -1.7055  -1.6749  -1.6325  -1.6036  -1.5970  -1.5738  -1.5646
    -1.5423  -1.5097  -1.4800  -1.4731  -1.4448  -1.4271  -1.4162  -1.4000
    -1.3905  -1.3687  -1.3412  -1.3255  -1.3218  -1.2979  -1.2685  -1.2662
    -1.2578  -1.2360  -1.2251  -1.1900  -1.1836  -1.1590  -1.1447  -1.0605
    -1.0401  -1.0341  -0.9939  -0.9820  -0.9499  -0.9089  -0.9050  -0.8524
    -0.8481  -0.7959  -0.7705  -0.7215  -0.6998  -0.6718  -0.6713  -0.6166
    -0.5730  -0.5509  -0.5003  -0.4760  -0.4498  -0.4045  -0.3850  -0.3795
    -0.3614  -0.3410  -0.3250  -0.3031  -0.2654  -0.2547  -0.2245  -0.1879
    -0.1845  -0.1811  -0.1465  -0.1228  -0.1086  -0.0973  -0.0814  -0.0671
    -0.0433  -0.0421  -0.0237   0.0005   0.0034   0.0298   0.0571   0.0600
     0.0964   0.1100   0.1195   0.1481   0.1593   0.1789   0.1960   0.2118
     0.2333   0.2501   0.2675   0.2815   0.2840   0.2979   0.3293   0.3313
     0.3502   0.3702   0.3838   0.4207   0.4264   0.4341   0.4600   0.4684
     0.4770   0.4819   0.4981   0.5149   0.5254   0.5571   0.5702   0.5728
     0.6093   0.6168   0.6547   0.6712   0.7121   0.7798   0.8701   0.9644
     1.2252   1.3447   1.3668   1.7204   1.9235   1.9255   2.2684   2.6642
     2.6652   2.8974   3.2787   3.3165   3.6412   3.7627   3.8583   3.9006
     3.9795   4.1003   4.2510   4.2520   4.4143   4.4773   4.6638   4.7105
     4.7685   4.9371   4.9865   5.0479   5.1112   5.1334   5.2706   5.4282
     5.5420   5.5741   5.6125   5.8354   5.9232   5.9422   5.9531   6.0779
     6.1332   6.2114   6.2784   6.2943   6.3854   6.4584   6.4746   6.4887
     6.5088   6.5856   6.6712   6.7052   6.9011   6.9316   6.9785   6.9912
     7.0225   7.0227   7.1605   7.1959   7.2916   7.4539   7.4597   7.4967

          k = 0.0538 0.0440 0.0000 ( 62686 PWs)   bands (ev):

   -11.6797  -8.1550  -7.3262  -7.0672  -6.7868  -6.3000  -6.0978  -5.9876
    -5.4391  -5.2925  -5.0606  -4.9182  -4.7770  -4.5485  -4.4786  -4.4030
    -4.3528  -4.2644  -4.2069  -4.1120  -4.0042  -3.9836  -3.9142  -3.8239
    -3.7766  -3.6805  -3.6103  -3.5552  -3.5084  -3.4925  -3.4714  -3.4170
    -3.3917  -3.3364  -3.2963  -3.2747  -3.2264  -3.1709  -3.0977  -3.0661
    -3.0150  -2.9558  -2.9386  -2.9083  -2.8774  -2.8618  -2.8079  -2.7724
    -2.7277  -2.7019  -2.6848  -2.6297  -2.6082  -2.5741  -2.5401  -2.4932
    -2.4611  -2.4050  -2.3680  -2.3520  -2.3297  -2.2899  -2.2780  -2.2332
    -2.1853  -2.1494  -2.1393  -2.1226  -2.1001  -2.0550  -2.0229  -1.9958
    -1.9881  -1.9348  -1.9027  -1.8847  -1.8543  -1.8333  -1.8231  -1.7798
    -1.7597  -1.7390  -1.7304  -1.6870  -1.6571  -1.6407  -1.6209  -1.6015
    -1.5810  -1.5717  -1.5265  -1.5047  -1.4813  -1.4403  -1.4365  -1.4036
    -1.3713  -1.3498  -1.3309  -1.3098  -1.2933  -1.2744  -1.2430  -1.2306
    -1.2111  -1.1823  -1.1741  -1.1586  -1.1235  -1.1156  -1.0964  -1.0897
    -1.0487  -1.0192  -0.9865  -0.9621  -0.9416  -0.9123  -0.9004  -0.8718
    -0.8514  -0.8055  -0.7868  -0.7650  -0.7363  -0.7188  -0.7029  -0.6732
    -0.6560  -0.6264  -0.6029  -0.5644  -0.5251  -0.5016  -0.4911  -0.4586
    -0.4225  -0.3919  -0.3619  -0.3220  -0.2959  -0.2842  -0.2554  -0.2370
    -0.2212  -0.1959  -0.1880  -0.1724  -0.1453  -0.1244  -0.0851  -0.0770
    -0.0528  -0.0447  -0.0152  -0.0003   0.0114   0.0319   0.0606   0.0705
     0.0904   0.1141   0.1327   0.1514   0.1728   0.1985   0.2338   0.2489
     0.2654   0.2880   0.3134   0.3261   0.3559   0.3832   0.4086   0.4172
     0.4329   0.4421   0.4502   0.4596   0.4857   0.4951   0.5007   0.5289
     0.5515   0.5690   0.5786   0.5909   0.5963   0.6151   0.6343   0.6380
     0.7146   0.8498   0.9432   1.0305   1.1009   1.2029   1.3006   1.3311
     1.4029   1.5181   1.7253   1.8407   1.9577   1.9994   2.3151   2.3546
     2.6333   2.7934   2.9160   3.0167   3.0667   3.4030   3.4609   3.5668
     3.7167   3.9379   3.9791   4.1170   4.1638   4.3356   4.5140   4.5891
     4.7108   4.7870   4.8322   4.9835   5.0202   5.0506   5.0767   5.2193
     5.3352   5.4031   5.4233   5.4571   5.5405   5.5783   5.6725   5.7353
     5.8077   5.8789   6.0562   6.1070   6.1461   6.2391   6.2813   6.3233
     6.3949   6.4962   6.5372   6.6408   6.7273   6.7876   6.8478   6.9265
     6.9880   7.0270   7.0624   7.1581   7.2287   7.3067   7.3688   7.4135

          k = 0.0538-0.0440 0.0000 ( 62686 PWs)   bands (ev):

   -11.6797  -8.1550  -7.3262  -7.0673  -6.7868  -6.2999  -6.0979  -5.9875
    -5.4391  -5.2925  -5.0607  -4.9181  -4.7771  -4.5484  -4.4787  -4.4030
    -4.3528  -4.2644  -4.2068  -4.1120  -4.0043  -3.9836  -3.9143  -3.8239
    -3.7767  -3.6805  -3.6104  -3.5552  -3.5085  -3.4926  -3.4712  -3.4170
    -3.3915  -3.3365  -3.2963  -3.2747  -3.2263  -3.1709  -3.0978  -3.0661
    -3.0150  -2.9558  -2.9386  -2.9085  -2.8774  -2.8618  -2.8078  -2.7724
    -2.7278  -2.7018  -2.6848  -2.6298  -2.6081  -2.5741  -2.5401  -2.4932
    -2.4611  -2.4050  -2.3679  -2.3520  -2.3297  -2.2899  -2.2781  -2.2332
    -2.1854  -2.1493  -2.1394  -2.1226  -2.1001  -2.0550  -2.0228  -1.9958
    -1.9881  -1.9349  -1.9027  -1.8847  -1.8542  -1.8332  -1.8230  -1.7798
    -1.7597  -1.7391  -1.7304  -1.6870  -1.6571  -1.6407  -1.6209  -1.6015
    -1.5810  -1.5718  -1.5264  -1.5046  -1.4813  -1.4402  -1.4366  -1.4035
    -1.3714  -1.3498  -1.3310  -1.3097  -1.2932  -1.2744  -1.2429  -1.2306
    -1.2113  -1.1823  -1.1741  -1.1586  -1.1234  -1.1157  -1.0964  -1.0897
    -1.0488  -1.0193  -0.9865  -0.9622  -0.9416  -0.9123  -0.9004  -0.8718
    -0.8515  -0.8055  -0.7867  -0.7650  -0.7363  -0.7187  -0.7028  -0.6733
    -0.6559  -0.6265  -0.6029  -0.5644  -0.5251  -0.5017  -0.4911  -0.4586
    -0.4224  -0.3919  -0.3618  -0.3221  -0.2959  -0.2843  -0.2554  -0.2370
    -0.2212  -0.1959  -0.1879  -0.1724  -0.1453  -0.1244  -0.0851  -0.0770
    -0.0528  -0.0447  -0.0152  -0.0003   0.0113   0.0319   0.0606   0.0705
     0.0904   0.1141   0.1327   0.1514   0.1728   0.1985   0.2338   0.2488
     0.2654   0.2880   0.3134   0.3261   0.3559   0.3831   0.4086   0.4172
     0.4329   0.4420   0.4503   0.4597   0.4857   0.4951   0.5007   0.5289
     0.5515   0.5690   0.5786   0.5910   0.5963   0.6151   0.6343   0.6380
     0.7146   0.8498   0.9432   1.0305   1.1009   1.2029   1.3006   1.3311
     1.4028   1.5181   1.7253   1.8407   1.9578   1.9994   2.3151   2.3546
     2.6333   2.7934   2.9160   3.0168   3.0668   3.4030   3.4608   3.5667
     3.7167   3.9379   3.9791   4.1170   4.1637   4.3357   4.5141   4.5890
     4.7108   4.7870   4.8321   4.9835   5.0201   5.0505   5.0768   5.2193
     5.3351   5.4032   5.4233   5.4571   5.5405   5.5783   5.6725   5.7353
     5.8077   5.8789   6.0563   6.1068   6.1461   6.2391   6.2813   6.3233
     6.3949   6.4961   6.5372   6.6408   6.7274   6.7876   6.8478   6.9266
     6.9880   7.0270   7.0624   7.1580   7.2288   7.3067   7.3688   7.4135

     the Fermi energy is    -0.4924 ev

!    total energy              =   -2897.04332311 Ry
     Harris-Foulkes estimate   =   -2897.04324131 Ry
     estimated scf accuracy    <       0.00000056 Ry

     The total energy is the sum of the following terms:

     one-electron contribution =  -61795.02093121 Ry
     hartree contribution      =   31197.12362014 Ry
     xc contribution           =   -1331.36030128 Ry
     ewald contribution        =   29032.32491607 Ry
     electric field correction =       0.00000158 Ry
     smearing contrib. (-TS)   =      -0.11062841 Ry

     total magnetization       =    60.84 Bohr mag/cell
     absolute magnetization    =    67.41 Bohr mag/cell

     convergence has been achieved in  22 iterations

     Forces acting on atoms (Ry/au):


     negative rho (up, down):  6.700E-03 1.930E-02
     atom    1 type  1   force =     0.00023931   -0.00000535   -0.00066263
     atom    2 type  1   force =     0.00011141   -0.00046161    0.00015483
     atom    3 type  1   force =     0.00015044    0.00045013    0.00026678
     atom    4 type  1   force =     0.00062602    0.00007220   -0.00068293
     atom    5 type  1   force =     0.00064553    0.00000573   -0.00073069
     atom    6 type  1   force =     0.00057355   -0.00005573    0.00073519
     atom    7 type  1   force =    -0.00038813    0.00006366    0.00026536
     atom    8 type  1   force =     0.00059561   -0.00003829    0.00030021
     atom    9 type  1   force =     0.00061081   -0.00000597    0.00032433
     atom   10 type  1   force =     0.00069306   -0.00002325    0.00000335
     atom   11 type  1   force =     0.00068683    0.00010709    0.00004054
     atom   12 type  1   force =     0.00077839   -0.00007181    0.00063352
     atom   13 type  1   force =     0.00053945    0.00007474   -0.00078356
     atom   14 type  1   force =     0.00047227    0.00026219   -0.00033164
     atom   15 type  1   force =     0.00046766   -0.00033652   -0.00036615
     atom   16 type  1   force =     0.00045081   -0.00025383   -0.00018514
     atom   17 type  1   force =     0.00047512    0.00030980   -0.00010810
     atom   18 type  1   force =    -0.00011670   -0.00008235    0.00020725
     atom   19 type  1   force =     0.00473307   -0.00001855   -0.00473779
     atom   20 type  1   force =    -0.00527727   -0.00033694    0.00155504
     atom   21 type  1   force =    -0.00529441    0.00036033    0.00152934
     atom   22 type  1   force =     0.00096589   -0.00043626   -0.00983858
     atom   23 type  1   force =     0.00097614    0.00041681   -0.00982162
     atom   24 type  1   force =    -0.00478669    0.00001868   -0.00155999
     atom   25 type  1   force =     0.00418154   -0.00001941   -0.02110013
     atom   26 type  1   force =     0.00349987    0.00466902   -0.02212735
     atom   27 type  1   force =     0.00349942   -0.00464808   -0.02213677
     atom   28 type  1   force =     0.00125697    0.00000909   -0.00892326
     atom   29 type  1   force =     0.00125480   -0.00001761   -0.00892629
     atom   30 type  1   force =     0.00006830    0.00000914   -0.00949812
     atom   31 type  1   force =    -0.00768917   -0.00000857    0.01307168
     atom   32 type  1   force =    -0.00710018    0.00012693    0.01195629
     atom   33 type  1   force =    -0.00710416   -0.00011943    0.01195747
     atom   34 type  1   force =     0.00332077   -0.00053291    0.02712314
     atom   35 type  1   force =     0.00332001    0.00052856    0.02712273
     atom   36 type  1   force =     0.00361796    0.00000715    0.02637427
     atom   37 type  2   force =    -0.00105430   -0.00001877   -0.00110058

     Total force =     0.070147     Total SCF correction =     0.001731
 !ASE

     Writing output data file calc.save
 
     init_run     :     41.21s CPU     48.28s WALL (       1 calls)
     electrons    :  72726.21s CPU  84502.22s WALL (      25 calls)
     update_pot   :    100.71s CPU    106.94s WALL (      24 calls)
     forces       :   1261.27s CPU   1307.14s WALL (      25 calls)

     Called by init_run:
     wfcinit      :     26.32s CPU     32.32s WALL (       1 calls)
     potinit      :      1.72s CPU      1.85s WALL (       1 calls)

     Called by electrons:
     c_bands      :  48654.93s CPU  57705.18s WALL (     798 calls)
     sum_band     :  16250.64s CPU  18376.38s WALL (     798 calls)
     v_of_rho     :    496.37s CPU    581.68s WALL (     823 calls)
     newd         :   7390.29s CPU   7882.70s WALL (     823 calls)
     mix_rho      :    116.15s CPU    141.09s WALL (     798 calls)

     Called by c_bands:
     init_us_2    :    204.82s CPU    223.61s WALL (   16220 calls)
     cegterg      :  47513.57s CPU  56510.61s WALL (    7980 calls)

     Called by *egterg:
     h_psi        :  24988.78s CPU  32057.88s WALL (   27061 calls)
     s_psi        :   3329.27s CPU   3452.34s WALL (   27061 calls)
     g_psi        :    120.59s CPU    123.50s WALL (   19071 calls)
     cdiaghg      :   6883.82s CPU   7061.37s WALL (   26811 calls)

     Called by h_psi:
     add_vuspsi   :   3371.04s CPU   3484.71s WALL (   27061 calls)

     General routines
     calbec       :   5200.57s CPU   5349.29s WALL (   35291 calls)
     fft          :    533.50s CPU    624.58s WALL (   25738 calls)
     ffts         :      6.39s CPU      8.62s WALL (    3242 calls)
     fftw         :  13164.28s CPU  21474.47s WALL (11332404 calls)
     interpolate  :     64.64s CPU     88.56s WALL (    3242 calls)
     davcio       :      0.00s CPU      0.18s WALL (      10 calls)
 
     Parallel routines
     fft_scatter  :   7865.97s CPU  12614.51s WALL (11361384 calls)
 
     PWSCF        :    20h39m CPU       23h56m WALL

 
   This run was terminated on:  13:22:59  21Apr2018            

=------------------------------------------------------------------------------=
   JOB DONE.
=------------------------------------------------------------------------------=
