  python dir          : /home/vossj/suncat/lib/python2.7/site-packages/espresso
  espresso dir        : /home/vossj/suncat/esdld/espresso-dynpy-beef/bin
  pseudo dir          : /home/alatimer/bin/psp/esp_psp_w_gbrvRu/
  ase-espresso py git : ffa2778-git



     Program PWSCF v.5.1rc2 (svn rev. ) starts on 18Mar2017 at 15:48:56 

     This program is part of the open-source Quantum ESPRESSO suite
     for quantum simulation of materials; please cite
         "P. Giannozzi et al., J. Phys.:Condens. Matter 21 395502 (2009);
          URL http://www.quantum-espresso.org", 
     in publications or presentations arising from this work. More details at
     http://www.quantum-espresso.org/quote

     Parallel version (MPI), running on    16 processors
     R & G space division:  proc/nbgrp/npool/nimage =      16
     Reading input from pw.inp
     Message from routine read_cards :
     DEPRECATED: no units specified in CELL_PARAMETERS card

     Current dimensions of program PWSCF are:
     Max number of different atomic species (ntypx) = 10
     Max number of k-points (npk) =  40000
     Max angular momentum in pseudopotentials (lmaxx) =  3
     Presently no symmetry can be used with electric field


     IMPORTANT: XC functional enforced from input :
     Exchange-correlation      = RPBE ( 1  4 28  4 0)
     Any further DFT definition will be discarded
     Please, verify this is what you really want

               file Ni.UPF: wavefunction(s)  3D renormalized

     Subspace diagonalization in iterative solution of the eigenvalue problem:
     a serial algorithm will be used

 
     Parallelization info
     --------------------
     sticks:   dense  smooth     PW     G-vecs:    dense   smooth      PW
     Min         386     154     42                68872    17389    2480
     Max         387     155     43                68885    17439    2491
     Sum        6181    2479    673              1102011   278611   39737
 
     Generating pointlists ...
     new r_m :   0.4125 (alat units)  0.7795 (a.u.) for type    1
     new r_m :   0.4125 (alat units)  0.7795 (a.u.) for type    2
     new r_m :   0.4125 (alat units)  0.7795 (a.u.) for type    3


     bravais-lattice index     =            0
     lattice parameter (alat)  =       1.8897  a.u.
     unit-cell volume          =    7046.4111 (a.u.)^3
     number of atoms/cell      =           45
     number of atomic types    =            3
     number of electrons       =       412.00
     number of Kohn-Sham states=          306
     kinetic-energy cutoff     =      44.0992  Ry
     charge density cutoff     =     440.9919  Ry
     convergence threshold     =      7.3E-07
     mixing beta               =       0.1000
     number of iterations used =           10  plain     mixing
     Exchange-correlation      = RPBE ( 1  4 28  4 0)
     nstep                     =           50


     celldm(1)=   1.889726  celldm(2)=   0.000000  celldm(3)=   0.000000
     celldm(4)=   0.000000  celldm(5)=   0.000000  celldm(6)=   0.000000

     crystal axes: (cart. coord. in units of alat)
               a(1) = (   7.548011   0.000000   0.000000 )  
               a(2) = (  -3.774005   6.536769   0.000000 )  
               a(3) = (   0.000000   0.000000  21.162925 )  

     reciprocal axes: (cart. coord. in units 2 pi/alat)
               b(1) = (  0.132485  0.076490  0.000000 )  
               b(2) = (  0.000000  0.152981  0.000000 )  
               b(3) = (  0.000000  0.000000  0.047252 )  


     PseudoPot. # 1 for Ni read from file:
     /home/alatimer/bin/psp/esp_psp_w_gbrvRu/Ni.UPF
     MD5 check sum: 8b2449ee0060d9c33484ccd47bb60870
     Pseudo is Ultrasoft + core correction, Zval = 10.0
     Generated using "atomic" code by A. Dal Corso  v.5.0.2 svn rev. 9415
     Using radial grid of 1195 points,  6 beta functions with: 
                l(1) =   0
                l(2) =   0
                l(3) =   1
                l(4) =   1
                l(5) =   2
                l(6) =   2
     Q(r) pseudized with 0 coefficients 


     PseudoPot. # 2 for  O read from file:
     /home/alatimer/bin/psp/esp_psp_w_gbrvRu/O.UPF
     MD5 check sum: e057bbcf3229fb5d8c36c0c92f9568b4
     Pseudo is Ultrasoft + core correction, Zval =  6.0
     Generated using "atomic" code by A. Dal Corso  v.5.0.2 svn rev. 9415
     Using radial grid of 1095 points,  4 beta functions with: 
                l(1) =   0
                l(2) =   0
                l(3) =   1
                l(4) =   1
     Q(r) pseudized with 0 coefficients 


     PseudoPot. # 3 for  C read from file:
     /home/alatimer/bin/psp/esp_psp_w_gbrvRu/C.UPF
     MD5 check sum: ab446d787031eba755f1d5ee46644bb0
     Pseudo is Ultrasoft + core correction, Zval =  4.0
     Generated using "atomic" code by A. Dal Corso  v.5.0.2 svn rev. 9415
     Using radial grid of 1073 points,  4 beta functions with: 
                l(1) =   0
                l(2) =   0
                l(3) =   1
                l(4) =   1
     Q(r) pseudized with 0 coefficients 


     atomic species   valence    mass     pseudopotential
        Ni1           10.00    58.69340     Ni( 1.00)
        O1             6.00    15.99940      O( 1.00)
        C1             4.00    12.01100      C( 1.00)

     Starting magnetic structure 
     atomic species   magnetization
        Ni1          0.300
        O1           0.500
        C1           0.750

     No symmetry found



   Cartesian axes

     site n.     atom                  positions (alat units)
         1           Ni1 tau(   1) = (   0.0000000   0.0000000   7.5000000  )
         2           Ni1 tau(   2) = (   1.2580018   0.7263077   9.5543084  )
         3           Ni1 tau(   3) = (   0.0000000   1.4526154  11.6086168  )
         4           Ni1 tau(   4) = (   1.2580018   2.1789231  13.6629252  )
         5           Ni1 tau(   5) = (  -1.2580018   2.1789231   7.5000000  )
         6           Ni1 tau(   6) = (   0.0000000   2.9052308   9.5543084  )
         7           Ni1 tau(   7) = (  -1.2580018   3.6315385  11.6086168  )
         8           Ni1 tau(   8) = (  -0.0000000   4.3578462  13.6629252  )
         9           Ni1 tau(   9) = (  -2.5160037   4.3578462   7.5000000  )
        10           Ni1 tau(  10) = (  -1.2580018   5.0841539   9.5543084  )
        11           Ni1 tau(  11) = (  -2.5160037   5.8104616  11.6086168  )
        12           Ni1 tau(  12) = (  -1.2580018   6.5367693  13.6629252  )
        13           Ni1 tau(  13) = (   2.5160037   0.0000000   7.5000000  )
        14           Ni1 tau(  14) = (   3.7740055   0.7263077   9.5543084  )
        15           Ni1 tau(  15) = (   2.5160037   1.4526154  11.6086168  )
        16           Ni1 tau(  16) = (   3.7740055   2.1789231  13.6629252  )
        17           Ni1 tau(  17) = (   1.2580018   2.1789231   7.5000000  )
        18           Ni1 tau(  18) = (   2.5160037   2.9052308   9.5543084  )
        19           Ni1 tau(  19) = (   1.2580018   3.6315385  11.6086168  )
        20           Ni1 tau(  20) = (   2.5160037   4.3578462  13.6629252  )
        21           Ni1 tau(  21) = (  -0.0000000   4.3578462   7.5000000  )
        22           Ni1 tau(  22) = (   1.2580018   5.0841539   9.5543084  )
        23           Ni1 tau(  23) = (  -0.0000000   5.8104616  11.6086168  )
        24           Ni1 tau(  24) = (   1.2580018   6.5367693  13.6629252  )
        25           Ni1 tau(  25) = (   5.0320073   0.0000000   7.5000000  )
        26           Ni1 tau(  26) = (   6.2900092   0.7263077   9.5543084  )
        27           Ni1 tau(  27) = (   5.0320073   1.4526154  11.6086168  )
        28           Ni1 tau(  28) = (   6.2900092   2.1789231  13.6629252  )
        29           Ni1 tau(  29) = (   3.7740055   2.1789231   7.5000000  )
        30           Ni1 tau(  30) = (   5.0320073   2.9052308   9.5543084  )
        31           Ni1 tau(  31) = (   3.7740055   3.6315385  11.6086168  )
        32           Ni1 tau(  32) = (   5.0320073   4.3578462  13.6629252  )
        33           Ni1 tau(  33) = (   2.5160037   4.3578462   7.5000000  )
        34           Ni1 tau(  34) = (   3.7740055   5.0841539   9.5543084  )
        35           Ni1 tau(  35) = (   2.5160037   5.8104616  11.6086168  )
        36           Ni1 tau(  36) = (   3.7740055   6.5367693  13.6629252  )
        37           O1  tau(  37) = (   3.7935804   5.2277866  14.8463543  )
        38           O1  tau(  38) = (   1.2203265   5.1554212  14.8463543  )
        39           O1  tau(  39) = (   3.7363302   0.8975750  14.8463543  )
        40           O1  tau(  40) = (   6.2523338   0.8975750  14.8463543  )
        41           O1  tau(  41) = (   1.1203265   0.8975750  14.8463543  )
        42           O1  tau(  42) = (  -1.3956772   5.2554212  14.8463543  )
        43           O1  tau(  43) = (   5.0943320   2.9764981  14.8463543  )
        44           O1  tau(  44) = (  -0.0376753   2.9764981  14.8463543  )
        45           C1  tau(  45) = (   2.4580018   2.9789231  14.9629252  )

     number of k points=    10  Fermi-Dirac smearing, width (Ry)=  0.0073
                       cart. coord. in units 2pi/alat
        k(    1) = (   0.0000000   0.0000000   0.0000000), wk =   0.1111111
        k(    2) = (   0.0000000   0.0509936   0.0000000), wk =   0.2222222
        k(    3) = (   0.0441617   0.0254968   0.0000000), wk =   0.2222222
        k(    4) = (   0.0441617   0.0764904   0.0000000), wk =   0.2222222
        k(    5) = (   0.0441617  -0.0254968   0.0000000), wk =   0.2222222
        k(    6) = (   0.0000000   0.0000000   0.0000000), wk =   0.1111111
        k(    7) = (   0.0000000   0.0509936   0.0000000), wk =   0.2222222
        k(    8) = (   0.0441617   0.0254968   0.0000000), wk =   0.2222222
        k(    9) = (   0.0441617   0.0764904   0.0000000), wk =   0.2222222
        k(   10) = (   0.0441617  -0.0254968   0.0000000), wk =   0.2222222

     Dense  grid:  1102011 G-vectors     FFT dimensions: (  96,  96, 270)

     Smooth grid:   278611 G-vectors     FFT dimensions: (  64,  64, 180)

     Largest allocated arrays     est. size (Mb)     dimensions
        Kohn-Sham Wavefunctions        10.19 Mb     (    2183,  306)
        NL pseudopotentials            23.98 Mb     (    2183,  720)
        Each V/rho on FFT grid          4.78 Mb     (  156672,   2)
        Each G-vector array             0.53 Mb     (   68874)
        G-vector shells                 0.19 Mb     (   24563)
     Largest temporary arrays     est. size (Mb)     dimensions
        Auxiliary wavefunctions        40.77 Mb     (    2183, 1224)
        Each subspace H/S matrix       22.86 Mb     (    1224, 1224)
        Each <psi_i|beta_j> matrix      3.36 Mb     (     720,  306)
        Arrays for rho mixing          23.91 Mb     (  156672,   10)

     Check: negative/imaginary core charge=   -0.000010    0.000000

     Initial potential from superposition of free atoms
     Check: negative starting charge=(component1):   -0.000446
     Check: negative starting charge=(component2):   -0.000213

     starting charge  411.99091, renormalised to  412.00000

     negative rho (up, down):  4.459E-04 2.131E-04
 
     Adding external electric field

     Computed dipole along edir(3) : 
        Dipole               -0.0088 Ry au,         -0.0224 Debye
        Dipole field         -0.0000 Ry au
 
        Potential amp.        0.0012 Ry
        Total length         38.9923 bohr
 
 
     Adding external electric field

     Computed dipole along edir(3) : 
        Dipole               -0.0088 Ry au,         -0.0224 Debye
        Dipole field         -0.0000 Ry au
 
        Potential amp.        0.0012 Ry
        Total length         38.9923 bohr
 
     Starting wfc are  360 randomized atomic wfcs

     total cpu time spent up to now is       36.1 secs

     Self-consistent Calculation

     iteration #  1     ecut=    44.10 Ry     beta=0.10
     Davidson diagonalization with overlap
     ethr =  1.00E-02,  avg # of iterations =  6.5

     negative rho (up, down):  4.125E-04 1.940E-04
 
     Adding external electric field

     Computed dipole along edir(3) : 
        Dipole               -0.4827 Ry au,         -1.2270 Debye
        Dipole field         -0.0009 Ry au
 
        Potential amp.        0.0671 Ry
        Total length         38.9923 bohr
 
 
     Adding external electric field

     Computed dipole along edir(3) : 
        Dipole               -0.4827 Ry au,         -1.2270 Debye
        Dipole field         -0.0009 Ry au
 
        Potential amp.        0.0671 Ry
        Total length         38.9923 bohr
 
 
     Magnetic moment per site:
     atom:    1    charge:    3.9481    magn:    1.1270    constr:    0.0000
     atom:    2    charge:    3.9688    magn:    1.1105    constr:    0.0000
     atom:    3    charge:    3.9734    magn:    1.1055    constr:    0.0000
     atom:    4    charge:    3.9379    magn:    1.1335    constr:    0.0000
     atom:    5    charge:    3.9482    magn:    1.1269    constr:    0.0000
     atom:    6    charge:    3.9687    magn:    1.1106    constr:    0.0000
     atom:    7    charge:    3.9738    magn:    1.1055    constr:    0.0000
     atom:    8    charge:    3.9400    magn:    1.1496    constr:    0.0000
     atom:    9    charge:    3.9482    magn:    1.1268    constr:    0.0000
     atom:   10    charge:    3.9687    magn:    1.1104    constr:    0.0000
     atom:   11    charge:    3.9735    magn:    1.1059    constr:    0.0000
     atom:   12    charge:    3.9388    magn:    1.1514    constr:    0.0000
     atom:   13    charge:    3.9480    magn:    1.1270    constr:    0.0000
     atom:   14    charge:    3.9688    magn:    1.1105    constr:    0.0000
     atom:   15    charge:    3.9742    magn:    1.1054    constr:    0.0000
     atom:   16    charge:    3.9377    magn:    1.1361    constr:    0.0000
     atom:   17    charge:    3.9480    magn:    1.1268    constr:    0.0000
     atom:   18    charge:    3.9684    magn:    1.1106    constr:    0.0000
     atom:   19    charge:    3.9738    magn:    1.1057    constr:    0.0000
     atom:   20    charge:    3.9423    magn:    1.1265    constr:    0.0000
     atom:   21    charge:    3.9480    magn:    1.1270    constr:    0.0000
     atom:   22    charge:    3.9688    magn:    1.1104    constr:    0.0000
     atom:   23    charge:    3.9732    magn:    1.1062    constr:    0.0000
     atom:   24    charge:    3.9374    magn:    1.1501    constr:    0.0000
     atom:   25    charge:    3.9481    magn:    1.1270    constr:    0.0000
     atom:   26    charge:    3.9677    magn:    1.1113    constr:    0.0000
     atom:   27    charge:    3.9731    magn:    1.1060    constr:    0.0000
     atom:   28    charge:    3.9343    magn:    1.1556    constr:    0.0000
     atom:   29    charge:    3.9480    magn:    1.1268    constr:    0.0000
     atom:   30    charge:    3.9687    magn:    1.1106    constr:    0.0000
     atom:   31    charge:    3.9742    magn:    1.1051    constr:    0.0000
     atom:   32    charge:    3.9389    magn:    1.1518    constr:    0.0000
     atom:   33    charge:    3.9480    magn:    1.1268    constr:    0.0000
     atom:   34    charge:    3.9687    magn:    1.1105    constr:    0.0000
     atom:   35    charge:    3.9729    magn:    1.1061    constr:    0.0000
     atom:   36    charge:    3.9353    magn:    1.1527    constr:    0.0000
     atom:   37    charge:    2.0198    magn:    0.9470    constr:    0.0000
     atom:   38    charge:    2.0209    magn:    0.9470    constr:    0.0000
     atom:   39    charge:    2.0185    magn:    0.9463    constr:    0.0000
     atom:   40    charge:    2.0205    magn:    0.9481    constr:    0.0000
     atom:   41    charge:    2.0198    magn:    0.9476    constr:    0.0000
     atom:   42    charge:    2.0210    magn:    0.9480    constr:    0.0000
     atom:   43    charge:    2.0201    magn:    0.9475    constr:    0.0000
     atom:   44    charge:    2.0221    magn:    0.9485    constr:    0.0000
     atom:   45    charge:    0.5646    magn:    0.3969    constr:    0.0000

     total cpu time spent up to now is      174.2 secs

     total energy              =   -3899.67274479 Ry
     Harris-Foulkes estimate   =   -3900.48420312 Ry
     estimated scf accuracy    <      10.86909966 Ry

     total magnetization       =    46.31 Bohr mag/cell
     absolute magnetization    =    46.64 Bohr mag/cell

     iteration #  2     ecut=    44.10 Ry     beta=0.10
     Davidson diagonalization with overlap
     ethr =  2.64E-03,  avg # of iterations =  2.7

     negative rho (up, down):  4.135E-04 2.299E-04
 
     Adding external electric field

     Computed dipole along edir(3) : 
        Dipole               -0.7594 Ry au,         -1.9301 Debye
        Dipole field         -0.0014 Ry au
 
        Potential amp.        0.1056 Ry
        Total length         38.9923 bohr
 
 
     Adding external electric field

     Computed dipole along edir(3) : 
        Dipole               -0.7594 Ry au,         -1.9301 Debye
        Dipole field         -0.0014 Ry au
 
        Potential amp.        0.1056 Ry
        Total length         38.9923 bohr
 
 
     Magnetic moment per site:
     atom:    1    charge:    3.9622    magn:    1.1039    constr:    0.0000
     atom:    2    charge:    3.9574    magn:    1.1065    constr:    0.0000
     atom:    3    charge:    3.9587    magn:    1.1037    constr:    0.0000
     atom:    4    charge:    3.9497    magn:    1.1159    constr:    0.0000
     atom:    5    charge:    3.9622    magn:    1.1038    constr:    0.0000
     atom:    6    charge:    3.9574    magn:    1.1065    constr:    0.0000
     atom:    7    charge:    3.9583    magn:    1.1044    constr:    0.0000
     atom:    8    charge:    3.9494    magn:    1.1338    constr:    0.0000
     atom:    9    charge:    3.9622    magn:    1.1037    constr:    0.0000
     atom:   10    charge:    3.9571    magn:    1.1066    constr:    0.0000
     atom:   11    charge:    3.9581    magn:    1.1047    constr:    0.0000
     atom:   12    charge:    3.9487    magn:    1.1352    constr:    0.0000
     atom:   13    charge:    3.9621    magn:    1.1038    constr:    0.0000
     atom:   14    charge:    3.9574    magn:    1.1065    constr:    0.0000
     atom:   15    charge:    3.9586    magn:    1.1044    constr:    0.0000
     atom:   16    charge:    3.9496    magn:    1.1184    constr:    0.0000
     atom:   17    charge:    3.9620    magn:    1.1037    constr:    0.0000
     atom:   18    charge:    3.9573    magn:    1.1063    constr:    0.0000
     atom:   19    charge:    3.9582    magn:    1.1049    constr:    0.0000
     atom:   20    charge:    3.9534    magn:    1.1091    constr:    0.0000
     atom:   21    charge:    3.9621    magn:    1.1038    constr:    0.0000
     atom:   22    charge:    3.9573    magn:    1.1064    constr:    0.0000
     atom:   23    charge:    3.9578    magn:    1.1050    constr:    0.0000
     atom:   24    charge:    3.9481    magn:    1.1332    constr:    0.0000
     atom:   25    charge:    3.9622    magn:    1.1039    constr:    0.0000
     atom:   26    charge:    3.9572    magn:    1.1064    constr:    0.0000
     atom:   27    charge:    3.9584    magn:    1.1043    constr:    0.0000
     atom:   28    charge:    3.9452    magn:    1.1392    constr:    0.0000
     atom:   29    charge:    3.9621    magn:    1.1037    constr:    0.0000
     atom:   30    charge:    3.9573    magn:    1.1065    constr:    0.0000
     atom:   31    charge:    3.9584    magn:    1.1043    constr:    0.0000
     atom:   32    charge:    3.9483    magn:    1.1362    constr:    0.0000
     atom:   33    charge:    3.9621    magn:    1.1037    constr:    0.0000
     atom:   34    charge:    3.9573    magn:    1.1065    constr:    0.0000
     atom:   35    charge:    3.9579    magn:    1.1047    constr:    0.0000
     atom:   36    charge:    3.9463    magn:    1.1359    constr:    0.0000
     atom:   37    charge:    2.0255    magn:    0.9335    constr:    0.0000
     atom:   38    charge:    2.0267    magn:    0.9332    constr:    0.0000
     atom:   39    charge:    2.0246    magn:    0.9326    constr:    0.0000
     atom:   40    charge:    2.0257    magn:    0.9349    constr:    0.0000
     atom:   41    charge:    2.0258    magn:    0.9341    constr:    0.0000
     atom:   42    charge:    2.0261    magn:    0.9348    constr:    0.0000
     atom:   43    charge:    2.0257    magn:    0.9341    constr:    0.0000
     atom:   44    charge:    2.0277    magn:    0.9352    constr:    0.0000
     atom:   45    charge:    0.5702    magn:    0.3959    constr:    0.0000

     total cpu time spent up to now is      258.1 secs

     total energy              =   -3899.56586110 Ry
     Harris-Foulkes estimate   =   -3902.44172836 Ry
     estimated scf accuracy    <      67.09913550 Ry

     total magnetization       =    52.19 Bohr mag/cell
     absolute magnetization    =    53.05 Bohr mag/cell

     iteration #  3     ecut=    44.10 Ry     beta=0.10
     Davidson diagonalization with overlap
     ethr =  2.64E-03,  avg # of iterations =  1.2

     negative rho (up, down):  4.146E-04 2.211E-04
 
     Adding external electric field

     Computed dipole along edir(3) : 
        Dipole               -0.1792 Ry au,         -0.4555 Debye
        Dipole field         -0.0003 Ry au
 
        Potential amp.        0.0249 Ry
        Total length         38.9923 bohr
 
 
     Adding external electric field

     Computed dipole along edir(3) : 
        Dipole               -0.1792 Ry au,         -0.4555 Debye
        Dipole field         -0.0003 Ry au
 
        Potential amp.        0.0249 Ry
        Total length         38.9923 bohr
 
 
     Magnetic moment per site:
     atom:    1    charge:    3.9781    magn:    1.0224    constr:    0.0000
     atom:    2    charge:    3.9573    magn:    1.0355    constr:    0.0000
     atom:    3    charge:    3.9615    magn:    1.0280    constr:    0.0000
     atom:    4    charge:    3.9525    magn:    1.0395    constr:    0.0000
     atom:    5    charge:    3.9780    magn:    1.0224    constr:    0.0000
     atom:    6    charge:    3.9573    magn:    1.0355    constr:    0.0000
     atom:    7    charge:    3.9621    magn:    1.0284    constr:    0.0000
     atom:    8    charge:    3.9528    magn:    1.0806    constr:    0.0000
     atom:    9    charge:    3.9782    magn:    1.0221    constr:    0.0000
     atom:   10    charge:    3.9583    magn:    1.0346    constr:    0.0000
     atom:   11    charge:    3.9621    magn:    1.0290    constr:    0.0000
     atom:   12    charge:    3.9542    magn:    1.0808    constr:    0.0000
     atom:   13    charge:    3.9786    magn:    1.0218    constr:    0.0000
     atom:   14    charge:    3.9576    magn:    1.0352    constr:    0.0000
     atom:   15    charge:    3.9620    magn:    1.0290    constr:    0.0000
     atom:   16    charge:    3.9532    magn:    1.0450    constr:    0.0000
     atom:   17    charge:    3.9783    magn:    1.0217    constr:    0.0000
     atom:   18    charge:    3.9573    magn:    1.0353    constr:    0.0000
     atom:   19    charge:    3.9612    magn:    1.0301    constr:    0.0000
     atom:   20    charge:    3.9499    magn:    1.0323    constr:    0.0000
     atom:   21    charge:    3.9785    magn:    1.0219    constr:    0.0000
     atom:   22    charge:    3.9578    magn:    1.0348    constr:    0.0000
     atom:   23    charge:    3.9619    magn:    1.0293    constr:    0.0000
     atom:   24    charge:    3.9529    magn:    1.0772    constr:    0.0000
     atom:   25    charge:    3.9783    magn:    1.0222    constr:    0.0000
     atom:   26    charge:    3.9561    magn:    1.0362    constr:    0.0000
     atom:   27    charge:    3.9612    magn:    1.0291    constr:    0.0000
     atom:   28    charge:    3.9557    magn:    1.0807    constr:    0.0000
     atom:   29    charge:    3.9782    magn:    1.0218    constr:    0.0000
     atom:   30    charge:    3.9573    magn:    1.0355    constr:    0.0000
     atom:   31    charge:    3.9614    magn:    1.0291    constr:    0.0000
     atom:   32    charge:    3.9536    magn:    1.0823    constr:    0.0000
     atom:   33    charge:    3.9783    magn:    1.0217    constr:    0.0000
     atom:   34    charge:    3.9575    magn:    1.0352    constr:    0.0000
     atom:   35    charge:    3.9609    magn:    1.0295    constr:    0.0000
     atom:   36    charge:    3.9544    magn:    1.0776    constr:    0.0000
     atom:   37    charge:    2.0354    magn:    0.8708    constr:    0.0000
     atom:   38    charge:    2.0364    magn:    0.8690    constr:    0.0000
     atom:   39    charge:    2.0344    magn:    0.8688    constr:    0.0000
     atom:   40    charge:    2.0368    magn:    0.8746    constr:    0.0000
     atom:   41    charge:    2.0355    magn:    0.8715    constr:    0.0000
     atom:   42    charge:    2.0370    magn:    0.8737    constr:    0.0000
     atom:   43    charge:    2.0363    magn:    0.8725    constr:    0.0000
     atom:   44    charge:    2.0382    magn:    0.8733    constr:    0.0000
     atom:   45    charge:    0.5680    magn:    0.3734    constr:    0.0000

     total cpu time spent up to now is      334.6 secs

     total energy              =   -3901.23508043 Ry
     Harris-Foulkes estimate   =   -3900.84826204 Ry
     estimated scf accuracy    <       3.21691678 Ry

     total magnetization       =    46.82 Bohr mag/cell
     absolute magnetization    =    47.23 Bohr mag/cell

     iteration #  4     ecut=    44.10 Ry     beta=0.10
     Davidson diagonalization with overlap
     ethr =  7.81E-04,  avg # of iterations =  4.4

     negative rho (up, down):  4.181E-04 2.329E-04
 
     Adding external electric field

     Computed dipole along edir(3) : 
        Dipole               -1.2605 Ry au,         -3.2038 Debye
        Dipole field         -0.0022 Ry au
 
        Potential amp.        0.1753 Ry
        Total length         38.9923 bohr
 
 
     Adding external electric field

     Computed dipole along edir(3) : 
        Dipole               -1.2605 Ry au,         -3.2038 Debye
        Dipole field         -0.0022 Ry au
 
        Potential amp.        0.1753 Ry
        Total length         38.9923 bohr
 
 
     Magnetic moment per site:
     atom:    1    charge:    3.9811    magn:    0.9794    constr:    0.0000
     atom:    2    charge:    3.9568    magn:    0.9939    constr:    0.0000
     atom:    3    charge:    3.9647    magn:    0.9817    constr:    0.0000
     atom:    4    charge:    3.9584    magn:    0.9928    constr:    0.0000
     atom:    5    charge:    3.9810    magn:    0.9794    constr:    0.0000
     atom:    6    charge:    3.9568    magn:    0.9938    constr:    0.0000
     atom:    7    charge:    3.9654    magn:    0.9823    constr:    0.0000
     atom:    8    charge:    3.9581    magn:    1.0464    constr:    0.0000
     atom:    9    charge:    3.9811    magn:    0.9791    constr:    0.0000
     atom:   10    charge:    3.9581    magn:    0.9927    constr:    0.0000
     atom:   11    charge:    3.9655    magn:    0.9830    constr:    0.0000
     atom:   12    charge:    3.9605    magn:    1.0461    constr:    0.0000
     atom:   13    charge:    3.9816    magn:    0.9787    constr:    0.0000
     atom:   14    charge:    3.9572    magn:    0.9934    constr:    0.0000
     atom:   15    charge:    3.9652    magn:    0.9832    constr:    0.0000
     atom:   16    charge:    3.9595    magn:    0.9998    constr:    0.0000
     atom:   17    charge:    3.9814    magn:    0.9785    constr:    0.0000
     atom:   18    charge:    3.9569    magn:    0.9936    constr:    0.0000
     atom:   19    charge:    3.9643    magn:    0.9845    constr:    0.0000
     atom:   20    charge:    3.9530    magn:    0.9852    constr:    0.0000
     atom:   21    charge:    3.9815    magn:    0.9788    constr:    0.0000
     atom:   22    charge:    3.9576    magn:    0.9929    constr:    0.0000
     atom:   23    charge:    3.9654    magn:    0.9833    constr:    0.0000
     atom:   24    charge:    3.9592    magn:    1.0415    constr:    0.0000
     atom:   25    charge:    3.9814    magn:    0.9792    constr:    0.0000
     atom:   26    charge:    3.9554    magn:    0.9947    constr:    0.0000
     atom:   27    charge:    3.9644    magn:    0.9830    constr:    0.0000
     atom:   28    charge:    3.9643    magn:    1.0442    constr:    0.0000
     atom:   29    charge:    3.9812    magn:    0.9786    constr:    0.0000
     atom:   30    charge:    3.9568    magn:    0.9938    constr:    0.0000
     atom:   31    charge:    3.9645    magn:    0.9832    constr:    0.0000
     atom:   32    charge:    3.9597    magn:    1.0481    constr:    0.0000
     atom:   33    charge:    3.9813    magn:    0.9785    constr:    0.0000
     atom:   34    charge:    3.9571    magn:    0.9935    constr:    0.0000
     atom:   35    charge:    3.9642    magn:    0.9835    constr:    0.0000
     atom:   36    charge:    3.9621    magn:    1.0408    constr:    0.0000
     atom:   37    charge:    2.0424    magn:    0.8330    constr:    0.0000
     atom:   38    charge:    2.0433    magn:    0.8303    constr:    0.0000
     atom:   39    charge:    2.0414    magn:    0.8304    constr:    0.0000
     atom:   40    charge:    2.0440    magn:    0.8382    constr:    0.0000
     atom:   41    charge:    2.0424    magn:    0.8338    constr:    0.0000
     atom:   42    charge:    2.0442    magn:    0.8369    constr:    0.0000
     atom:   43    charge:    2.0435    magn:    0.8353    constr:    0.0000
     atom:   44    charge:    2.0454    magn:    0.8360    constr:    0.0000
     atom:   45    charge:    0.5693    magn:    0.3615    constr:    0.0000

     total cpu time spent up to now is      427.0 secs

     total energy              =   -3900.92899944 Ry
     Harris-Foulkes estimate   =   -3902.07865777 Ry
     estimated scf accuracy    <     119.72288365 Ry

     total magnetization       =    48.39 Bohr mag/cell
     absolute magnetization    =    49.33 Bohr mag/cell

     iteration #  5     ecut=    44.10 Ry     beta=0.10
     Davidson diagonalization with overlap
     ethr =  7.81E-04,  avg # of iterations =  3.8

     negative rho (up, down):  4.181E-04 2.326E-04
 
     Adding external electric field

     Computed dipole along edir(3) : 
        Dipole               -1.3575 Ry au,         -3.4504 Debye
        Dipole field         -0.0024 Ry au
 
        Potential amp.        0.1888 Ry
        Total length         38.9923 bohr
 
 
     Adding external electric field

     Computed dipole along edir(3) : 
        Dipole               -1.3575 Ry au,         -3.4504 Debye
        Dipole field         -0.0024 Ry au
 
        Potential amp.        0.1888 Ry
        Total length         38.9923 bohr
 
 
     Magnetic moment per site:
     atom:    1    charge:    3.9820    magn:    0.9285    constr:    0.0000
     atom:    2    charge:    3.9634    magn:    0.9389    constr:    0.0000
     atom:    3    charge:    3.9624    magn:    0.9314    constr:    0.0000
     atom:    4    charge:    3.9616    magn:    0.9385    constr:    0.0000
     atom:    5    charge:    3.9820    magn:    0.9283    constr:    0.0000
     atom:    6    charge:    3.9635    magn:    0.9387    constr:    0.0000
     atom:    7    charge:    3.9614    magn:    0.9338    constr:    0.0000
     atom:    8    charge:    3.9617    magn:    1.0077    constr:    0.0000
     atom:    9    charge:    3.9815    magn:    0.9285    constr:    0.0000
     atom:   10    charge:    3.9629    magn:    0.9392    constr:    0.0000
     atom:   11    charge:    3.9615    magn:    0.9348    constr:    0.0000
     atom:   12    charge:    3.9618    magn:    1.0091    constr:    0.0000
     atom:   13    charge:    3.9811    magn:    0.9289    constr:    0.0000
     atom:   14    charge:    3.9634    magn:    0.9387    constr:    0.0000
     atom:   15    charge:    3.9629    magn:    0.9335    constr:    0.0000
     atom:   16    charge:    3.9622    magn:    0.9480    constr:    0.0000
     atom:   17    charge:    3.9816    magn:    0.9279    constr:    0.0000
     atom:   18    charge:    3.9636    magn:    0.9386    constr:    0.0000
     atom:   19    charge:    3.9638    magn:    0.9336    constr:    0.0000
     atom:   20    charge:    3.9616    magn:    0.9265    constr:    0.0000
     atom:   21    charge:    3.9812    magn:    0.9288    constr:    0.0000
     atom:   22    charge:    3.9636    magn:    0.9381    constr:    0.0000
     atom:   23    charge:    3.9618    magn:    0.9347    constr:    0.0000
     atom:   24    charge:    3.9615    magn:    1.0021    constr:    0.0000
     atom:   25    charge:    3.9817    magn:    0.9286    constr:    0.0000
     atom:   26    charge:    3.9631    magn:    0.9390    constr:    0.0000
     atom:   27    charge:    3.9624    magn:    0.9329    constr:    0.0000
     atom:   28    charge:    3.9582    magn:    1.0104    constr:    0.0000
     atom:   29    charge:    3.9817    magn:    0.9278    constr:    0.0000
     atom:   30    charge:    3.9636    magn:    0.9386    constr:    0.0000
     atom:   31    charge:    3.9636    magn:    0.9323    constr:    0.0000
     atom:   32    charge:    3.9606    magn:    1.0114    constr:    0.0000
     atom:   33    charge:    3.9817    magn:    0.9278    constr:    0.0000
     atom:   34    charge:    3.9637    magn:    0.9384    constr:    0.0000
     atom:   35    charge:    3.9636    magn:    0.9322    constr:    0.0000
     atom:   36    charge:    3.9601    magn:    1.0035    constr:    0.0000
     atom:   37    charge:    2.0493    magn:    0.7874    constr:    0.0000
     atom:   38    charge:    2.0505    magn:    0.7836    constr:    0.0000
     atom:   39    charge:    2.0485    magn:    0.7840    constr:    0.0000
     atom:   40    charge:    2.0509    magn:    0.7946    constr:    0.0000
     atom:   41    charge:    2.0492    magn:    0.7882    constr:    0.0000
     atom:   42    charge:    2.0511    magn:    0.7928    constr:    0.0000
     atom:   43    charge:    2.0505    magn:    0.7904    constr:    0.0000
     atom:   44    charge:    2.0524    magn:    0.7910    constr:    0.0000
     atom:   45    charge:    0.5725    magn:    0.3471    constr:    0.0000

     total cpu time spent up to now is      517.5 secs

     total energy              =   -3901.88439961 Ry
     Harris-Foulkes estimate   =   -3901.67882393 Ry
     estimated scf accuracy    <       5.29313475 Ry

     total magnetization       =    45.10 Bohr mag/cell
     absolute magnetization    =    45.76 Bohr mag/cell

     iteration #  6     ecut=    44.10 Ry     beta=0.10
     Davidson diagonalization with overlap
     ethr =  7.81E-04,  avg # of iterations =  1.5

     negative rho (up, down):  4.229E-04 2.446E-04
 
     Adding external electric field

     Computed dipole along edir(3) : 
        Dipole               -1.3040 Ry au,         -3.3144 Debye
        Dipole field         -0.0023 Ry au
 
        Potential amp.        0.1814 Ry
        Total length         38.9923 bohr
 
 
     Adding external electric field

     Computed dipole along edir(3) : 
        Dipole               -1.3040 Ry au,         -3.3144 Debye
        Dipole field         -0.0023 Ry au
 
        Potential amp.        0.1814 Ry
        Total length         38.9923 bohr
 
 
     Magnetic moment per site:
     atom:    1    charge:    3.9761    magn:    0.8550    constr:    0.0000
     atom:    2    charge:    3.9636    magn:    0.8634    constr:    0.0000
     atom:    3    charge:    3.9683    magn:    0.8483    constr:    0.0000
     atom:    4    charge:    3.9587    magn:    0.8562    constr:    0.0000
     atom:    5    charge:    3.9763    magn:    0.8547    constr:    0.0000
     atom:    6    charge:    3.9630    magn:    0.8637    constr:    0.0000
     atom:    7    charge:    3.9681    magn:    0.8509    constr:    0.0000
     atom:    8    charge:    3.9646    magn:    0.9493    constr:    0.0000
     atom:    9    charge:    3.9774    magn:    0.8536    constr:    0.0000
     atom:   10    charge:    3.9639    magn:    0.8631    constr:    0.0000
     atom:   11    charge:    3.9682    magn:    0.8523    constr:    0.0000
     atom:   12    charge:    3.9639    magn:    0.9514    constr:    0.0000
     atom:   13    charge:    3.9783    magn:    0.8529    constr:    0.0000
     atom:   14    charge:    3.9633    magn:    0.8633    constr:    0.0000
     atom:   15    charge:    3.9665    magn:    0.8530    constr:    0.0000
     atom:   16    charge:    3.9591    magn:    0.8694    constr:    0.0000
     atom:   17    charge:    3.9764    magn:    0.8538    constr:    0.0000
     atom:   18    charge:    3.9615    magn:    0.8650    constr:    0.0000
     atom:   19    charge:    3.9652    magn:    0.8548    constr:    0.0000
     atom:   20    charge:    3.9642    magn:    0.8392    constr:    0.0000
     atom:   21    charge:    3.9781    magn:    0.8531    constr:    0.0000
     atom:   22    charge:    3.9621    magn:    0.8639    constr:    0.0000
     atom:   23    charge:    3.9670    magn:    0.8533    constr:    0.0000
     atom:   24    charge:    3.9630    magn:    0.9411    constr:    0.0000
     atom:   25    charge:    3.9767    magn:    0.8545    constr:    0.0000
     atom:   26    charge:    3.9621    magn:    0.8652    constr:    0.0000
     atom:   27    charge:    3.9676    magn:    0.8509    constr:    0.0000
     atom:   28    charge:    3.9575    magn:    0.9518    constr:    0.0000
     atom:   29    charge:    3.9763    magn:    0.8539    constr:    0.0000
     atom:   30    charge:    3.9627    magn:    0.8639    constr:    0.0000
     atom:   31    charge:    3.9656    magn:    0.8527    constr:    0.0000
     atom:   32    charge:    3.9622    magn:    0.9543    constr:    0.0000
     atom:   33    charge:    3.9761    magn:    0.8541    constr:    0.0000
     atom:   34    charge:    3.9622    magn:    0.8641    constr:    0.0000
     atom:   35    charge:    3.9662    magn:    0.8519    constr:    0.0000
     atom:   36    charge:    3.9596    magn:    0.9423    constr:    0.0000
     atom:   37    charge:    2.0555    magn:    0.7177    constr:    0.0000
     atom:   38    charge:    2.0568    magn:    0.7122    constr:    0.0000
     atom:   39    charge:    2.0550    magn:    0.7127    constr:    0.0000
     atom:   40    charge:    2.0575    magn:    0.7288    constr:    0.0000
     atom:   41    charge:    2.0556    magn:    0.7182    constr:    0.0000
     atom:   42    charge:    2.0580    magn:    0.7261    constr:    0.0000
     atom:   43    charge:    2.0566    magn:    0.7222    constr:    0.0000
     atom:   44    charge:    2.0584    magn:    0.7222    constr:    0.0000
     atom:   45    charge:    0.5753    magn:    0.3217    constr:    0.0000

     total cpu time spent up to now is      595.2 secs

     total energy              =   -3902.34262488 Ry
     Harris-Foulkes estimate   =   -3901.96172605 Ry
     estimated scf accuracy    <       1.77461357 Ry

     total magnetization       =    44.06 Bohr mag/cell
     absolute magnetization    =    45.00 Bohr mag/cell

     iteration #  7     ecut=    44.10 Ry     beta=0.10
     Davidson diagonalization with overlap
     ethr =  4.31E-04,  avg # of iterations =  2.1

     negative rho (up, down):  5.077E-04 4.528E-04
 
     Adding external electric field

     Computed dipole along edir(3) : 
        Dipole               -1.1985 Ry au,         -3.0464 Debye
        Dipole field         -0.0021 Ry au
 
        Potential amp.        0.1667 Ry
        Total length         38.9923 bohr
 
 
     Adding external electric field

     Computed dipole along edir(3) : 
        Dipole               -1.1985 Ry au,         -3.0464 Debye
        Dipole field         -0.0021 Ry au
 
        Potential amp.        0.1667 Ry
        Total length         38.9923 bohr
 
 
     Magnetic moment per site:
     atom:    1    charge:    3.9691    magn:    0.6963    constr:    0.0000
     atom:    2    charge:    3.9640    magn:    0.7055    constr:    0.0000
     atom:    3    charge:    3.9691    magn:    0.6816    constr:    0.0000
     atom:    4    charge:    3.9617    magn:    0.6764    constr:    0.0000
     atom:    5    charge:    3.9685    magn:    0.6967    constr:    0.0000
     atom:    6    charge:    3.9655    magn:    0.7040    constr:    0.0000
     atom:    7    charge:    3.9663    magn:    0.6881    constr:    0.0000
     atom:    8    charge:    3.9660    magn:    0.8281    constr:    0.0000
     atom:    9    charge:    3.9653    magn:    0.6989    constr:    0.0000
     atom:   10    charge:    3.9608    magn:    0.7084    constr:    0.0000
     atom:   11    charge:    3.9664    magn:    0.6905    constr:    0.0000
     atom:   12    charge:    3.9681    magn:    0.8290    constr:    0.0000
     atom:   13    charge:    3.9622    magn:    0.7013    constr:    0.0000
     atom:   14    charge:    3.9649    magn:    0.7043    constr:    0.0000
     atom:   15    charge:    3.9702    magn:    0.6866    constr:    0.0000
     atom:   16    charge:    3.9637    magn:    0.6956    constr:    0.0000
     atom:   17    charge:    3.9686    magn:    0.6957    constr:    0.0000
     atom:   18    charge:    3.9700    magn:    0.7012    constr:    0.0000
     atom:   19    charge:    3.9703    magn:    0.6881    constr:    0.0000
     atom:   20    charge:    3.9601    magn:    0.6566    constr:    0.0000
     atom:   21    charge:    3.9637    magn:    0.7001    constr:    0.0000
     atom:   22    charge:    3.9682    magn:    0.7014    constr:    0.0000
     atom:   23    charge:    3.9667    magn:    0.6907    constr:    0.0000
     atom:   24    charge:    3.9678    magn:    0.8095    constr:    0.0000
     atom:   25    charge:    3.9681    magn:    0.6971    constr:    0.0000
     atom:   26    charge:    3.9661    magn:    0.7066    constr:    0.0000
     atom:   27    charge:    3.9694    magn:    0.6851    constr:    0.0000
     atom:   28    charge:    3.9699    magn:    0.8176    constr:    0.0000
     atom:   29    charge:    3.9692    magn:    0.6953    constr:    0.0000
     atom:   30    charge:    3.9665    magn:    0.7030    constr:    0.0000
     atom:   31    charge:    3.9705    magn:    0.6850    constr:    0.0000
     atom:   32    charge:    3.9662    magn:    0.8327    constr:    0.0000
     atom:   33    charge:    3.9709    magn:    0.6940    constr:    0.0000
     atom:   34    charge:    3.9682    magn:    0.7017    constr:    0.0000
     atom:   35    charge:    3.9700    magn:    0.6843    constr:    0.0000
     atom:   36    charge:    3.9687    magn:    0.8049    constr:    0.0000
     atom:   37    charge:    2.0646    magn:    0.5701    constr:    0.0000
     atom:   38    charge:    2.0654    magn:    0.5606    constr:    0.0000
     atom:   39    charge:    2.0646    magn:    0.5613    constr:    0.0000
     atom:   40    charge:    2.0680    magn:    0.5899    constr:    0.0000
     atom:   41    charge:    2.0655    magn:    0.5696    constr:    0.0000
     atom:   42    charge:    2.0685    magn:    0.5853    constr:    0.0000
     atom:   43    charge:    2.0657    magn:    0.5776    constr:    0.0000
     atom:   44    charge:    2.0673    magn:    0.5765    constr:    0.0000
     atom:   45    charge:    0.5789    magn:    0.2643    constr:    0.0000

     total cpu time spent up to now is      675.6 secs

     total energy              =   -3902.96642834 Ry
     Harris-Foulkes estimate   =   -3902.37698551 Ry
     estimated scf accuracy    <       1.15678935 Ry

     total magnetization       =    41.97 Bohr mag/cell
     absolute magnetization    =    43.39 Bohr mag/cell

     iteration #  8     ecut=    44.10 Ry     beta=0.10
     Davidson diagonalization with overlap
     ethr =  2.81E-04,  avg # of iterations =  5.1

     negative rho (up, down):  6.461E-04 7.029E-04
 
     Adding external electric field

     Computed dipole along edir(3) : 
        Dipole               -1.0990 Ry au,         -2.7935 Debye
        Dipole field         -0.0020 Ry au
 
        Potential amp.        0.1528 Ry
        Total length         38.9923 bohr
 
 
     Adding external electric field

     Computed dipole along edir(3) : 
        Dipole               -1.0990 Ry au,         -2.7935 Debye
        Dipole field         -0.0020 Ry au
 
        Potential amp.        0.1528 Ry
        Total length         38.9923 bohr
 
 
     Magnetic moment per site:
     atom:    1    charge:    3.9630    magn:    0.5669    constr:    0.0000
     atom:    2    charge:    3.9691    magn:    0.5720    constr:    0.0000
     atom:    3    charge:    3.9691    magn:    0.5444    constr:    0.0000
     atom:    4    charge:    3.9668    magn:    0.5236    constr:    0.0000
     atom:    5    charge:    3.9633    magn:    0.5667    constr:    0.0000
     atom:    6    charge:    3.9690    magn:    0.5716    constr:    0.0000
     atom:    7    charge:    3.9690    magn:    0.5504    constr:    0.0000
     atom:    8    charge:    3.9712    magn:    0.7224    constr:    0.0000
     atom:    9    charge:    3.9632    magn:    0.5667    constr:    0.0000
     atom:   10    charge:    3.9702    magn:    0.5723    constr:    0.0000
     atom:   11    charge:    3.9696    magn:    0.5534    constr:    0.0000
     atom:   12    charge:    3.9720    magn:    0.7233    constr:    0.0000
     atom:   13    charge:    3.9630    magn:    0.5672    constr:    0.0000
     atom:   14    charge:    3.9692    magn:    0.5713    constr:    0.0000
     atom:   15    charge:    3.9697    magn:    0.5514    constr:    0.0000
     atom:   16    charge:    3.9683    magn:    0.5475    constr:    0.0000
     atom:   17    charge:    3.9624    magn:    0.5665    constr:    0.0000
     atom:   18    charge:    3.9658    magn:    0.5751    constr:    0.0000
     atom:   19    charge:    3.9706    magn:    0.5532    constr:    0.0000
     atom:   20    charge:    3.9631    magn:    0.5010    constr:    0.0000
     atom:   21    charge:    3.9627    magn:    0.5671    constr:    0.0000
     atom:   22    charge:    3.9683    magn:    0.5715    constr:    0.0000
     atom:   23    charge:    3.9704    magn:    0.5535    constr:    0.0000
     atom:   24    charge:    3.9734    magn:    0.6963    constr:    0.0000
     atom:   25    charge:    3.9626    magn:    0.5673    constr:    0.0000
     atom:   26    charge:    3.9668    magn:    0.5787    constr:    0.0000
     atom:   27    charge:    3.9690    magn:    0.5495    constr:    0.0000
     atom:   28    charge:    3.9698    magn:    0.7022    constr:    0.0000
     atom:   29    charge:    3.9619    magn:    0.5669    constr:    0.0000
     atom:   30    charge:    3.9685    magn:    0.5716    constr:    0.0000
     atom:   31    charge:    3.9693    magn:    0.5501    constr:    0.0000
     atom:   32    charge:    3.9696    magn:    0.7267    constr:    0.0000
     atom:   33    charge:    3.9598    magn:    0.5687    constr:    0.0000
     atom:   34    charge:    3.9676    magn:    0.5724    constr:    0.0000
     atom:   35    charge:    3.9702    magn:    0.5480    constr:    0.0000
     atom:   36    charge:    3.9739    magn:    0.6882    constr:    0.0000
     atom:   37    charge:    2.0690    magn:    0.4458    constr:    0.0000
     atom:   38    charge:    2.0697    magn:    0.4332    constr:    0.0000
     atom:   39    charge:    2.0694    magn:    0.4341    constr:    0.0000
     atom:   40    charge:    2.0712    magn:    0.4719    constr:    0.0000
     atom:   41    charge:    2.0711    magn:    0.4453    constr:    0.0000
     atom:   42    charge:    2.0733    magn:    0.4670    constr:    0.0000
     atom:   43    charge:    2.0686    magn:    0.4545    constr:    0.0000
     atom:   44    charge:    2.0711    magn:    0.4533    constr:    0.0000
     atom:   45    charge:    0.5825    magn:    0.2143    constr:    0.0000

     total cpu time spent up to now is      772.1 secs

     total energy              =   -3903.30008562 Ry
     Harris-Foulkes estimate   =   -3903.05501493 Ry
     estimated scf accuracy    <       1.75954232 Ry

     total magnetization       =    37.17 Bohr mag/cell
     absolute magnetization    =    39.38 Bohr mag/cell

     iteration #  9     ecut=    44.10 Ry     beta=0.10
     Davidson diagonalization with overlap
     ethr =  2.81E-04,  avg # of iterations =  3.6

     negative rho (up, down):  6.330E-04 6.604E-04
 
     Adding external electric field

     Computed dipole along edir(3) : 
        Dipole               -1.0625 Ry au,         -2.7006 Debye
        Dipole field         -0.0019 Ry au
 
        Potential amp.        0.1478 Ry
        Total length         38.9923 bohr
 
 
     Adding external electric field

     Computed dipole along edir(3) : 
        Dipole               -1.0625 Ry au,         -2.7006 Debye
        Dipole field         -0.0019 Ry au
 
        Potential amp.        0.1478 Ry
        Total length         38.9923 bohr
 
 
     Magnetic moment per site:
     atom:    1    charge:    3.9629    magn:    0.5497    constr:    0.0000
     atom:    2    charge:    3.9687    magn:    0.5550    constr:    0.0000
     atom:    3    charge:    3.9703    magn:    0.5253    constr:    0.0000
     atom:    4    charge:    3.9667    magn:    0.5007    constr:    0.0000
     atom:    5    charge:    3.9630    magn:    0.5497    constr:    0.0000
     atom:    6    charge:    3.9686    magn:    0.5546    constr:    0.0000
     atom:    7    charge:    3.9696    magn:    0.5318    constr:    0.0000
     atom:    8    charge:    3.9721    magn:    0.7053    constr:    0.0000
     atom:    9    charge:    3.9629    magn:    0.5497    constr:    0.0000
     atom:   10    charge:    3.9687    magn:    0.5562    constr:    0.0000
     atom:   11    charge:    3.9699    magn:    0.5350    constr:    0.0000
     atom:   12    charge:    3.9716    magn:    0.7059    constr:    0.0000
     atom:   13    charge:    3.9627    magn:    0.5502    constr:    0.0000
     atom:   14    charge:    3.9686    magn:    0.5544    constr:    0.0000
     atom:   15    charge:    3.9698    magn:    0.5331    constr:    0.0000
     atom:   16    charge:    3.9680    magn:    0.5247    constr:    0.0000
     atom:   17    charge:    3.9628    magn:    0.5491    constr:    0.0000
     atom:   18    charge:    3.9674    magn:    0.5569    constr:    0.0000
     atom:   19    charge:    3.9707    magn:    0.5350    constr:    0.0000
     atom:   20    charge:    3.9653    magn:    0.4781    constr:    0.0000
     atom:   21    charge:    3.9627    magn:    0.5500    constr:    0.0000
     atom:   22    charge:    3.9683    magn:    0.5542    constr:    0.0000
     atom:   23    charge:    3.9702    magn:    0.5357    constr:    0.0000
     atom:   24    charge:    3.9739    magn:    0.6784    constr:    0.0000
     atom:   25    charge:    3.9627    magn:    0.5500    constr:    0.0000
     atom:   26    charge:    3.9675    magn:    0.5613    constr:    0.0000
     atom:   27    charge:    3.9702    magn:    0.5305    constr:    0.0000
     atom:   28    charge:    3.9692    magn:    0.6825    constr:    0.0000
     atom:   29    charge:    3.9626    magn:    0.5493    constr:    0.0000
     atom:   30    charge:    3.9685    magn:    0.5543    constr:    0.0000
     atom:   31    charge:    3.9698    magn:    0.5314    constr:    0.0000
     atom:   32    charge:    3.9695    magn:    0.7086    constr:    0.0000
     atom:   33    charge:    3.9617    magn:    0.5502    constr:    0.0000
     atom:   34    charge:    3.9682    magn:    0.5547    constr:    0.0000
     atom:   35    charge:    3.9710    magn:    0.5293    constr:    0.0000
     atom:   36    charge:    3.9734    magn:    0.6699    constr:    0.0000
     atom:   37    charge:    2.0680    magn:    0.4278    constr:    0.0000
     atom:   38    charge:    2.0687    magn:    0.4148    constr:    0.0000
     atom:   39    charge:    2.0683    magn:    0.4157    constr:    0.0000
     atom:   40    charge:    2.0694    magn:    0.4542    constr:    0.0000
     atom:   41    charge:    2.0703    magn:    0.4275    constr:    0.0000
     atom:   42    charge:    2.0716    magn:    0.4495    constr:    0.0000
     atom:   43    charge:    2.0669    magn:    0.4359    constr:    0.0000
     atom:   44    charge:    2.0696    magn:    0.4350    constr:    0.0000
     atom:   45    charge:    0.5838    magn:    0.2066    constr:    0.0000

     total cpu time spent up to now is      859.1 secs

     total energy              =   -3903.40196498 Ry
     Harris-Foulkes estimate   =   -3903.38455272 Ry
     estimated scf accuracy    <       1.89774500 Ry

     total magnetization       =    29.45 Bohr mag/cell
     absolute magnetization    =    32.91 Bohr mag/cell

     iteration # 10     ecut=    44.10 Ry     beta=0.10
     Davidson diagonalization with overlap
     ethr =  2.81E-04,  avg # of iterations =  1.0

     negative rho (up, down):  6.267E-04 6.369E-04
 
     Adding external electric field

     Computed dipole along edir(3) : 
        Dipole               -1.0499 Ry au,         -2.6685 Debye
        Dipole field         -0.0019 Ry au
 
        Potential amp.        0.1460 Ry
        Total length         38.9923 bohr
 
 
     Adding external electric field

     Computed dipole along edir(3) : 
        Dipole               -1.0499 Ry au,         -2.6685 Debye
        Dipole field         -0.0019 Ry au
 
        Potential amp.        0.1460 Ry
        Total length         38.9923 bohr
 
 
     Magnetic moment per site:
     atom:    1    charge:    3.9638    magn:    0.5259    constr:    0.0000
     atom:    2    charge:    3.9695    magn:    0.5305    constr:    0.0000
     atom:    3    charge:    3.9706    magn:    0.4994    constr:    0.0000
     atom:    4    charge:    3.9648    magn:    0.4660    constr:    0.0000
     atom:    5    charge:    3.9641    magn:    0.5256    constr:    0.0000
     atom:    6    charge:    3.9696    magn:    0.5298    constr:    0.0000
     atom:    7    charge:    3.9699    magn:    0.5059    constr:    0.0000
     atom:    8    charge:    3.9722    magn:    0.6784    constr:    0.0000
     atom:    9    charge:    3.9636    magn:    0.5261    constr:    0.0000
     atom:   10    charge:    3.9704    magn:    0.5311    constr:    0.0000
     atom:   11    charge:    3.9701    magn:    0.5095    constr:    0.0000
     atom:   12    charge:    3.9724    magn:    0.6778    constr:    0.0000
     atom:   13    charge:    3.9636    magn:    0.5265    constr:    0.0000
     atom:   14    charge:    3.9696    magn:    0.5297    constr:    0.0000
     atom:   15    charge:    3.9699    magn:    0.5075    constr:    0.0000
     atom:   16    charge:    3.9663    magn:    0.4897    constr:    0.0000
     atom:   17    charge:    3.9634    magn:    0.5254    constr:    0.0000
     atom:   18    charge:    3.9685    magn:    0.5324    constr:    0.0000
     atom:   19    charge:    3.9696    magn:    0.5102    constr:    0.0000
     atom:   20    charge:    3.9644    magn:    0.4450    constr:    0.0000
     atom:   21    charge:    3.9634    magn:    0.5263    constr:    0.0000
     atom:   22    charge:    3.9692    magn:    0.5296    constr:    0.0000
     atom:   23    charge:    3.9702    magn:    0.5106    constr:    0.0000
     atom:   24    charge:    3.9739    magn:    0.6507    constr:    0.0000
     atom:   25    charge:    3.9634    magn:    0.5262    constr:    0.0000
     atom:   26    charge:    3.9681    magn:    0.5376    constr:    0.0000
     atom:   27    charge:    3.9705    magn:    0.5049    constr:    0.0000
     atom:   28    charge:    3.9709    magn:    0.6504    constr:    0.0000
     atom:   29    charge:    3.9632    magn:    0.5257    constr:    0.0000
     atom:   30    charge:    3.9692    magn:    0.5297    constr:    0.0000
     atom:   31    charge:    3.9690    magn:    0.5061    constr:    0.0000
     atom:   32    charge:    3.9703    magn:    0.6792    constr:    0.0000
     atom:   33    charge:    3.9628    magn:    0.5262    constr:    0.0000
     atom:   34    charge:    3.9688    magn:    0.5303    constr:    0.0000
     atom:   35    charge:    3.9701    magn:    0.5045    constr:    0.0000
     atom:   36    charge:    3.9733    magn:    0.6411    constr:    0.0000
     atom:   37    charge:    2.0651    magn:    0.4012    constr:    0.0000
     atom:   38    charge:    2.0651    magn:    0.3873    constr:    0.0000
     atom:   39    charge:    2.0651    magn:    0.3885    constr:    0.0000
     atom:   40    charge:    2.0657    magn:    0.4278    constr:    0.0000
     atom:   41    charge:    2.0676    magn:    0.4016    constr:    0.0000
     atom:   42    charge:    2.0678    magn:    0.4234    constr:    0.0000
     atom:   43    charge:    2.0634    magn:    0.4078    constr:    0.0000
     atom:   44    charge:    2.0660    magn:    0.4074    constr:    0.0000
     atom:   45    charge:    0.5854    magn:    0.1938    constr:    0.0000

     total cpu time spent up to now is      934.6 secs

     total energy              =   -3903.43510033 Ry
     Harris-Foulkes estimate   =   -3903.40620769 Ry
     estimated scf accuracy    <       1.03197560 Ry

     total magnetization       =    28.96 Bohr mag/cell
     absolute magnetization    =    32.61 Bohr mag/cell

     iteration # 11     ecut=    44.10 Ry     beta=0.10
     Davidson diagonalization with overlap
     ethr =  2.50E-04,  avg # of iterations =  1.0

     negative rho (up, down):  6.970E-04 7.561E-04
 
     Adding external electric field

     Computed dipole along edir(3) : 
        Dipole               -1.0740 Ry au,         -2.7298 Debye
        Dipole field         -0.0019 Ry au
 
        Potential amp.        0.1494 Ry
        Total length         38.9923 bohr
 
 
     Adding external electric field

     Computed dipole along edir(3) : 
        Dipole               -1.0740 Ry au,         -2.7298 Debye
        Dipole field         -0.0019 Ry au
 
        Potential amp.        0.1494 Ry
        Total length         38.9923 bohr
 
 
     Magnetic moment per site:
     atom:    1    charge:    3.9688    magn:    0.4326    constr:    0.0000
     atom:    2    charge:    3.9714    magn:    0.4348    constr:    0.0000
     atom:    3    charge:    3.9696    magn:    0.3997    constr:    0.0000
     atom:    4    charge:    3.9632    magn:    0.3248    constr:    0.0000
     atom:    5    charge:    3.9681    magn:    0.4332    constr:    0.0000
     atom:    6    charge:    3.9710    magn:    0.4342    constr:    0.0000
     atom:    7    charge:    3.9682    magn:    0.4067    constr:    0.0000
     atom:    8    charge:    3.9724    magn:    0.5689    constr:    0.0000
     atom:    9    charge:    3.9696    magn:    0.4326    constr:    0.0000
     atom:   10    charge:    3.9704    magn:    0.4369    constr:    0.0000
     atom:   11    charge:    3.9691    magn:    0.4110    constr:    0.0000
     atom:   12    charge:    3.9711    magn:    0.5637    constr:    0.0000
     atom:   13    charge:    3.9701    magn:    0.4331    constr:    0.0000
     atom:   14    charge:    3.9711    magn:    0.4344    constr:    0.0000
     atom:   15    charge:    3.9701    magn:    0.4073    constr:    0.0000
     atom:   16    charge:    3.9643    magn:    0.3464    constr:    0.0000
     atom:   17    charge:    3.9689    magn:    0.4322    constr:    0.0000
     atom:   18    charge:    3.9698    magn:    0.4385    constr:    0.0000
     atom:   19    charge:    3.9723    magn:    0.4094    constr:    0.0000
     atom:   20    charge:    3.9630    magn:    0.3121    constr:    0.0000
     atom:   21    charge:    3.9696    magn:    0.4330    constr:    0.0000
     atom:   22    charge:    3.9712    magn:    0.4344    constr:    0.0000
     atom:   23    charge:    3.9697    magn:    0.4133    constr:    0.0000
     atom:   24    charge:    3.9735    magn:    0.5377    constr:    0.0000
     atom:   25    charge:    3.9690    magn:    0.4327    constr:    0.0000
     atom:   26    charge:    3.9709    magn:    0.4447    constr:    0.0000
     atom:   27    charge:    3.9695    magn:    0.4063    constr:    0.0000
     atom:   28    charge:    3.9682    magn:    0.5183    constr:    0.0000
     atom:   29    charge:    3.9687    magn:    0.4324    constr:    0.0000
     atom:   30    charge:    3.9710    magn:    0.4339    constr:    0.0000
     atom:   31    charge:    3.9706    magn:    0.4042    constr:    0.0000
     atom:   32    charge:    3.9685    magn:    0.5579    constr:    0.0000
     atom:   33    charge:    3.9669    magn:    0.4335    constr:    0.0000
     atom:   34    charge:    3.9712    magn:    0.4345    constr:    0.0000
     atom:   35    charge:    3.9724    magn:    0.4046    constr:    0.0000
     atom:   36    charge:    3.9714    magn:    0.5234    constr:    0.0000
     atom:   37    charge:    2.0518    magn:    0.2941    constr:    0.0000
     atom:   38    charge:    2.0504    magn:    0.2772    constr:    0.0000
     atom:   39    charge:    2.0512    magn:    0.2800    constr:    0.0000
     atom:   40    charge:    2.0506    magn:    0.3209    constr:    0.0000
     atom:   41    charge:    2.0557    magn:    0.2988    constr:    0.0000
     atom:   42    charge:    2.0520    magn:    0.3185    constr:    0.0000
     atom:   43    charge:    2.0484    magn:    0.2939    constr:    0.0000
     atom:   44    charge:    2.0514    magn:    0.2962    constr:    0.0000
     atom:   45    charge:    0.5879    magn:    0.1385    constr:    0.0000

     total cpu time spent up to now is     1010.1 secs

     total energy              =   -3903.48798274 Ry
     Harris-Foulkes estimate   =   -3903.43894053 Ry
     estimated scf accuracy    <       0.53597403 Ry

     total magnetization       =    28.05 Bohr mag/cell
     absolute magnetization    =    31.93 Bohr mag/cell

     iteration # 12     ecut=    44.10 Ry     beta=0.10
     Davidson diagonalization with overlap
     ethr =  1.30E-04,  avg # of iterations =  4.1

     negative rho (up, down):  6.732E-04 7.201E-04
 
     Adding external electric field

     Computed dipole along edir(3) : 
        Dipole               -1.1080 Ry au,         -2.8162 Debye
        Dipole field         -0.0020 Ry au
 
        Potential amp.        0.1541 Ry
        Total length         38.9923 bohr
 
 
     Adding external electric field

     Computed dipole along edir(3) : 
        Dipole               -1.1080 Ry au,         -2.8162 Debye
        Dipole field         -0.0020 Ry au
 
        Potential amp.        0.1541 Ry
        Total length         38.9923 bohr
 
 
     Magnetic moment per site:
     atom:    1    charge:    3.9683    magn:    0.4146    constr:    0.0000
     atom:    2    charge:    3.9721    magn:    0.4147    constr:    0.0000
     atom:    3    charge:    3.9707    magn:    0.3783    constr:    0.0000
     atom:    4    charge:    3.9636    magn:    0.2894    constr:    0.0000
     atom:    5    charge:    3.9690    magn:    0.4143    constr:    0.0000
     atom:    6    charge:    3.9720    magn:    0.4138    constr:    0.0000
     atom:    7    charge:    3.9706    magn:    0.3844    constr:    0.0000
     atom:    8    charge:    3.9699    magn:    0.5404    constr:    0.0000
     atom:    9    charge:    3.9685    magn:    0.4150    constr:    0.0000
     atom:   10    charge:    3.9719    magn:    0.4165    constr:    0.0000
     atom:   11    charge:    3.9703    magn:    0.3897    constr:    0.0000
     atom:   12    charge:    3.9684    magn:    0.5341    constr:    0.0000
     atom:   13    charge:    3.9676    magn:    0.4164    constr:    0.0000
     atom:   14    charge:    3.9718    magn:    0.4144    constr:    0.0000
     atom:   15    charge:    3.9690    magn:    0.3869    constr:    0.0000
     atom:   16    charge:    3.9651    magn:    0.3100    constr:    0.0000
     atom:   17    charge:    3.9687    magn:    0.4141    constr:    0.0000
     atom:   18    charge:    3.9712    magn:    0.4187    constr:    0.0000
     atom:   19    charge:    3.9686    magn:    0.3903    constr:    0.0000
     atom:   20    charge:    3.9633    magn:    0.2811    constr:    0.0000
     atom:   21    charge:    3.9686    magn:    0.4153    constr:    0.0000
     atom:   22    charge:    3.9710    magn:    0.4151    constr:    0.0000
     atom:   23    charge:    3.9695    magn:    0.3932    constr:    0.0000
     atom:   24    charge:    3.9707    magn:    0.5084    constr:    0.0000
     atom:   25    charge:    3.9684    magn:    0.4148    constr:    0.0000
     atom:   26    charge:    3.9718    magn:    0.4255    constr:    0.0000
     atom:   27    charge:    3.9708    magn:    0.3850    constr:    0.0000
     atom:   28    charge:    3.9661    magn:    0.4824    constr:    0.0000
     atom:   29    charge:    3.9688    magn:    0.4140    constr:    0.0000
     atom:   30    charge:    3.9724    magn:    0.4133    constr:    0.0000
     atom:   31    charge:    3.9691    magn:    0.3835    constr:    0.0000
     atom:   32    charge:    3.9669    magn:    0.5249    constr:    0.0000
     atom:   33    charge:    3.9690    magn:    0.4139    constr:    0.0000
     atom:   34    charge:    3.9716    magn:    0.4147    constr:    0.0000
     atom:   35    charge:    3.9697    magn:    0.3856    constr:    0.0000
     atom:   36    charge:    3.9693    magn:    0.4921    constr:    0.0000
     atom:   37    charge:    2.0484    magn:    0.2684    constr:    0.0000
     atom:   38    charge:    2.0470    magn:    0.2508    constr:    0.0000
     atom:   39    charge:    2.0478    magn:    0.2543    constr:    0.0000
     atom:   40    charge:    2.0479    magn:    0.2946    constr:    0.0000
     atom:   41    charge:    2.0520    magn:    0.2746    constr:    0.0000
     atom:   42    charge:    2.0494    magn:    0.2931    constr:    0.0000
     atom:   43    charge:    2.0456    magn:    0.2658    constr:    0.0000
     atom:   44    charge:    2.0483    magn:    0.2688    constr:    0.0000
     atom:   45    charge:    0.5850    magn:    0.1231    constr:    0.0000

     total cpu time spent up to now is     1100.2 secs

     total energy              =   -3903.53302955 Ry
     Harris-Foulkes estimate   =   -3903.53075964 Ry
     estimated scf accuracy    <       0.25456633 Ry

     total magnetization       =    23.71 Bohr mag/cell
     absolute magnetization    =    28.30 Bohr mag/cell

     iteration # 13     ecut=    44.10 Ry     beta=0.10
     Davidson diagonalization with overlap
     ethr =  6.18E-05,  avg # of iterations =  2.7

     negative rho (up, down):  6.425E-04 6.782E-04
 
     Adding external electric field

     Computed dipole along edir(3) : 
        Dipole               -1.1357 Ry au,         -2.8867 Debye
        Dipole field         -0.0020 Ry au
 
        Potential amp.        0.1580 Ry
        Total length         38.9923 bohr
 
 
     Adding external electric field

     Computed dipole along edir(3) : 
        Dipole               -1.1357 Ry au,         -2.8867 Debye
        Dipole field         -0.0020 Ry au
 
        Potential amp.        0.1580 Ry
        Total length         38.9923 bohr
 
 
     Magnetic moment per site:
     atom:    1    charge:    3.9704    magn:    0.3945    constr:    0.0000
     atom:    2    charge:    3.9724    magn:    0.3926    constr:    0.0000
     atom:    3    charge:    3.9702    magn:    0.3552    constr:    0.0000
     atom:    4    charge:    3.9623    magn:    0.2421    constr:    0.0000
     atom:    5    charge:    3.9695    magn:    0.3953    constr:    0.0000
     atom:    6    charge:    3.9722    magn:    0.3916    constr:    0.0000
     atom:    7    charge:    3.9692    magn:    0.3615    constr:    0.0000
     atom:    8    charge:    3.9674    magn:    0.4993    constr:    0.0000
     atom:    9    charge:    3.9699    magn:    0.3955    constr:    0.0000
     atom:   10    charge:    3.9727    magn:    0.3943    constr:    0.0000
     atom:   11    charge:    3.9697    magn:    0.3667    constr:    0.0000
     atom:   12    charge:    3.9665    magn:    0.4912    constr:    0.0000
     atom:   13    charge:    3.9710    magn:    0.3957    constr:    0.0000
     atom:   14    charge:    3.9727    magn:    0.3921    constr:    0.0000
     atom:   15    charge:    3.9696    magn:    0.3629    constr:    0.0000
     atom:   16    charge:    3.9635    magn:    0.2607    constr:    0.0000
     atom:   17    charge:    3.9697    magn:    0.3948    constr:    0.0000
     atom:   18    charge:    3.9728    magn:    0.3967    constr:    0.0000
     atom:   19    charge:    3.9696    magn:    0.3662    constr:    0.0000
     atom:   20    charge:    3.9636    magn:    0.2416    constr:    0.0000
     atom:   21    charge:    3.9702    magn:    0.3957    constr:    0.0000
     atom:   22    charge:    3.9732    magn:    0.3924    constr:    0.0000
     atom:   23    charge:    3.9700    magn:    0.3706    constr:    0.0000
     atom:   24    charge:    3.9678    magn:    0.4665    constr:    0.0000
     atom:   25    charge:    3.9703    magn:    0.3949    constr:    0.0000
     atom:   26    charge:    3.9720    magn:    0.4048    constr:    0.0000
     atom:   27    charge:    3.9699    magn:    0.3624    constr:    0.0000
     atom:   28    charge:    3.9641    magn:    0.4299    constr:    0.0000
     atom:   29    charge:    3.9693    magn:    0.3950    constr:    0.0000
     atom:   30    charge:    3.9715    magn:    0.3919    constr:    0.0000
     atom:   31    charge:    3.9687    magn:    0.3593    constr:    0.0000
     atom:   32    charge:    3.9641    magn:    0.4761    constr:    0.0000
     atom:   33    charge:    3.9694    magn:    0.3949    constr:    0.0000
     atom:   34    charge:    3.9724    magn:    0.3926    constr:    0.0000
     atom:   35    charge:    3.9705    magn:    0.3626    constr:    0.0000
     atom:   36    charge:    3.9665    magn:    0.4477    constr:    0.0000
     atom:   37    charge:    2.0419    magn:    0.2352    constr:    0.0000
     atom:   38    charge:    2.0409    magn:    0.2170    constr:    0.0000
     atom:   39    charge:    2.0413    magn:    0.2217    constr:    0.0000
     atom:   40    charge:    2.0421    magn:    0.2602    constr:    0.0000
     atom:   41    charge:    2.0451    magn:    0.2443    constr:    0.0000
     atom:   42    charge:    2.0436    magn:    0.2604    constr:    0.0000
     atom:   43    charge:    2.0396    magn:    0.2285    constr:    0.0000
     atom:   44    charge:    2.0422    magn:    0.2329    constr:    0.0000
     atom:   45    charge:    0.5814    magn:    0.1023    constr:    0.0000

     total cpu time spent up to now is     1184.2 secs

     total energy              =   -3903.54483291 Ry
     Harris-Foulkes estimate   =   -3903.54040444 Ry
     estimated scf accuracy    <       0.27308036 Ry

     total magnetization       =    22.31 Bohr mag/cell
     absolute magnetization    =    26.99 Bohr mag/cell

     iteration # 14     ecut=    44.10 Ry     beta=0.10
     Davidson diagonalization with overlap
     ethr =  6.18E-05,  avg # of iterations =  1.0

     negative rho (up, down):  6.085E-04 6.262E-04
 
     Adding external electric field

     Computed dipole along edir(3) : 
        Dipole               -1.1860 Ry au,         -3.0146 Debye
        Dipole field         -0.0021 Ry au
 
        Potential amp.        0.1649 Ry
        Total length         38.9923 bohr
 
 
     Adding external electric field

     Computed dipole along edir(3) : 
        Dipole               -1.1860 Ry au,         -3.0146 Debye
        Dipole field         -0.0021 Ry au
 
        Potential amp.        0.1649 Ry
        Total length         38.9923 bohr
 
 
     Magnetic moment per site:
     atom:    1    charge:    3.9719    magn:    0.3776    constr:    0.0000
     atom:    2    charge:    3.9719    magn:    0.3720    constr:    0.0000
     atom:    3    charge:    3.9697    magn:    0.3334    constr:    0.0000
     atom:    4    charge:    3.9601    magn:    0.1888    constr:    0.0000
     atom:    5    charge:    3.9731    magn:    0.3770    constr:    0.0000
     atom:    6    charge:    3.9727    magn:    0.3703    constr:    0.0000
     atom:    7    charge:    3.9690    magn:    0.3390    constr:    0.0000
     atom:    8    charge:    3.9651    magn:    0.4504    constr:    0.0000
     atom:    9    charge:    3.9729    magn:    0.3777    constr:    0.0000
     atom:   10    charge:    3.9720    magn:    0.3741    constr:    0.0000
     atom:   11    charge:    3.9690    magn:    0.3450    constr:    0.0000
     atom:   12    charge:    3.9644    magn:    0.4403    constr:    0.0000
     atom:   13    charge:    3.9716    magn:    0.3796    constr:    0.0000
     atom:   14    charge:    3.9717    magn:    0.3720    constr:    0.0000
     atom:   15    charge:    3.9695    magn:    0.3403    constr:    0.0000
     atom:   16    charge:    3.9607    magn:    0.2042    constr:    0.0000
     atom:   17    charge:    3.9720    magn:    0.3777    constr:    0.0000
     atom:   18    charge:    3.9715    magn:    0.3777    constr:    0.0000
     atom:   19    charge:    3.9698    magn:    0.3433    constr:    0.0000
     atom:   20    charge:    3.9631    magn:    0.1987    constr:    0.0000
     atom:   21    charge:    3.9720    magn:    0.3787    constr:    0.0000
     atom:   22    charge:    3.9712    magn:    0.3734    constr:    0.0000
     atom:   23    charge:    3.9687    magn:    0.3504    constr:    0.0000
     atom:   24    charge:    3.9643    magn:    0.4174    constr:    0.0000
     atom:   25    charge:    3.9715    magn:    0.3782    constr:    0.0000
     atom:   26    charge:    3.9723    magn:    0.3854    constr:    0.0000
     atom:   27    charge:    3.9698    magn:    0.3407    constr:    0.0000
     atom:   28    charge:    3.9599    magn:    0.3673    constr:    0.0000
     atom:   29    charge:    3.9723    magn:    0.3772    constr:    0.0000
     atom:   30    charge:    3.9733    magn:    0.3699    constr:    0.0000
     atom:   31    charge:    3.9695    magn:    0.3354    constr:    0.0000
     atom:   32    charge:    3.9619    magn:    0.4169    constr:    0.0000
     atom:   33    charge:    3.9709    magn:    0.3780    constr:    0.0000
     atom:   34    charge:    3.9720    magn:    0.3723    constr:    0.0000
     atom:   35    charge:    3.9701    magn:    0.3419    constr:    0.0000
     atom:   36    charge:    3.9625    magn:    0.3957    constr:    0.0000
     atom:   37    charge:    2.0344    magn:    0.1985    constr:    0.0000
     atom:   38    charge:    2.0339    magn:    0.1798    constr:    0.0000
     atom:   39    charge:    2.0338    magn:    0.1863    constr:    0.0000
     atom:   40    charge:    2.0352    magn:    0.2216    constr:    0.0000
     atom:   41    charge:    2.0372    magn:    0.2116    constr:    0.0000
     atom:   42    charge:    2.0365    magn:    0.2243    constr:    0.0000
     atom:   43    charge:    2.0327    magn:    0.1862    constr:    0.0000
     atom:   44    charge:    2.0351    magn:    0.1925    constr:    0.0000
     atom:   45    charge:    0.5763    magn:    0.0773    constr:    0.0000

     total cpu time spent up to now is     1260.1 secs

     total energy              =   -3903.55782605 Ry
     Harris-Foulkes estimate   =   -3903.55087649 Ry
     estimated scf accuracy    <       0.09362346 Ry

     total magnetization       =    21.87 Bohr mag/cell
     absolute magnetization    =    26.51 Bohr mag/cell

     iteration # 15     ecut=    44.10 Ry     beta=0.10
     Davidson diagonalization with overlap
     ethr =  2.27E-05,  avg # of iterations =  4.9

     negative rho (up, down):  5.825E-04 5.849E-04
 
     Adding external electric field

     Computed dipole along edir(3) : 
        Dipole               -1.1909 Ry au,         -3.0268 Debye
        Dipole field         -0.0021 Ry au
 
        Potential amp.        0.1656 Ry
        Total length         38.9923 bohr
 
 
     Adding external electric field

     Computed dipole along edir(3) : 
        Dipole               -1.1909 Ry au,         -3.0268 Debye
        Dipole field         -0.0021 Ry au
 
        Potential amp.        0.1656 Ry
        Total length         38.9923 bohr
 
 
     Magnetic moment per site:
     atom:    1    charge:    3.9724    magn:    0.3691    constr:    0.0000
     atom:    2    charge:    3.9718    magn:    0.3616    constr:    0.0000
     atom:    3    charge:    3.9698    magn:    0.3224    constr:    0.0000
     atom:    4    charge:    3.9598    magn:    0.1623    constr:    0.0000
     atom:    5    charge:    3.9714    magn:    0.3700    constr:    0.0000
     atom:    6    charge:    3.9710    magn:    0.3606    constr:    0.0000
     atom:    7    charge:    3.9691    magn:    0.3278    constr:    0.0000
     atom:    8    charge:    3.9639    magn:    0.4250    constr:    0.0000
     atom:    9    charge:    3.9716    magn:    0.3705    constr:    0.0000
     atom:   10    charge:    3.9713    magn:    0.3642    constr:    0.0000
     atom:   11    charge:    3.9695    magn:    0.3339    constr:    0.0000
     atom:   12    charge:    3.9631    magn:    0.4148    constr:    0.0000
     atom:   13    charge:    3.9724    magn:    0.3711    constr:    0.0000
     atom:   14    charge:    3.9717    magn:    0.3616    constr:    0.0000
     atom:   15    charge:    3.9695    magn:    0.3289    constr:    0.0000
     atom:   16    charge:    3.9604    magn:    0.1761    constr:    0.0000
     atom:   17    charge:    3.9726    magn:    0.3693    constr:    0.0000
     atom:   18    charge:    3.9707    magn:    0.3681    constr:    0.0000
     atom:   19    charge:    3.9691    magn:    0.3322    constr:    0.0000
     atom:   20    charge:    3.9616    magn:    0.1771    constr:    0.0000
     atom:   21    charge:    3.9727    magn:    0.3702    constr:    0.0000
     atom:   22    charge:    3.9714    magn:    0.3631    constr:    0.0000
     atom:   23    charge:    3.9690    magn:    0.3400    constr:    0.0000
     atom:   24    charge:    3.9635    magn:    0.3923    constr:    0.0000
     atom:   25    charge:    3.9729    magn:    0.3692    constr:    0.0000
     atom:   26    charge:    3.9714    magn:    0.3763    constr:    0.0000
     atom:   27    charge:    3.9699    magn:    0.3298    constr:    0.0000
     atom:   28    charge:    3.9585    magn:    0.3362    constr:    0.0000
     atom:   29    charge:    3.9722    magn:    0.3691    constr:    0.0000
     atom:   30    charge:    3.9708    magn:    0.3607    constr:    0.0000
     atom:   31    charge:    3.9690    magn:    0.3237    constr:    0.0000
     atom:   32    charge:    3.9607    magn:    0.3866    constr:    0.0000
     atom:   33    charge:    3.9732    magn:    0.3684    constr:    0.0000
     atom:   34    charge:    3.9713    magn:    0.3624    constr:    0.0000
     atom:   35    charge:    3.9697    magn:    0.3317    constr:    0.0000
     atom:   36    charge:    3.9617    magn:    0.3697    constr:    0.0000
     atom:   37    charge:    2.0320    magn:    0.1794    constr:    0.0000
     atom:   38    charge:    2.0313    magn:    0.1607    constr:    0.0000
     atom:   39    charge:    2.0316    magn:    0.1682    constr:    0.0000
     atom:   40    charge:    2.0325    magn:    0.2020    constr:    0.0000
     atom:   41    charge:    2.0352    magn:    0.1948    constr:    0.0000
     atom:   42    charge:    2.0332    magn:    0.2057    constr:    0.0000
     atom:   43    charge:    2.0303    magn:    0.1645    constr:    0.0000
[...]
     0.9210   0.9242   0.9285   0.9307   0.9337   0.9379   0.9464   0.9505
     1.0214   1.0528   1.0803   1.0823   1.0843   1.0880   1.0928   1.0952
     1.0999   1.1087   1.1722   1.1761   1.2514   1.2540   1.2589   1.2606
     1.2645   1.2668   1.3285   1.4182   1.4220   1.6218   1.6221   1.6769
     1.6799   1.6808   1.6909   1.6927   1.6937   1.7169   1.7270   1.7291
     1.7405   1.7600   1.7680   1.7742   1.7932   1.8049   1.8095   2.0158
     2.0261   2.0507   2.0526   2.0551   2.0694   2.0705   2.0722   2.0731
     2.0791   2.0797   2.0979   2.1000   2.1032   2.1902   2.1921   2.1934
     2.1948   2.2008   2.2044   2.2678   2.3006   2.3020   2.3023   2.3043
     2.3051   2.3054   2.3489   2.3491   2.3819   2.3913   2.4225   2.4279
     2.4452   2.4458   2.4625   2.4643   2.4647   2.4682   2.4893   2.4911
     2.7804   2.7820   2.7833   2.7842   2.8243   2.8258   2.8456   2.8678
     2.9024   2.9046   2.9533   2.9609   2.9634   3.4406   4.4512   4.4549
     4.5662   4.5701   4.5867   4.7736   4.7748   4.9465   6.7902   7.0646
     7.0721   7.0826   7.0884   7.1072   7.1629   7.1638   7.2766   7.5030
     7.5030   7.8297   7.8437   8.2859   8.2910   8.3060   8.4997   9.0069
     9.0089   9.1197   9.1203   9.6435   9.7661   9.7677   9.7781   9.7811
     9.7917   9.8781  10.1413  10.1416  10.4916  10.7577  10.7586  10.7771
    10.7778  10.7831  10.8594  11.4921  11.5074  11.5212  11.5349  11.5554
    11.6189  11.6285  11.6287  11.7597  11.7626  11.7863  11.7892  11.7951
    11.8682  12.0923  12.1676  12.5359  12.6441  12.6521  12.6816  12.6871
    12.6976  12.8062  12.8860  12.8953  12.9893  12.9963  13.0189  13.0877
    13.3083  13.7846

          k = 0.0000 0.0510 0.0000 ( 34862 PWs)   bands (ev):

   -18.0164 -17.5945 -17.2469 -17.1502 -16.7963 -16.7673 -16.6944 -16.5057
    -9.0499  -5.7293  -5.1847  -4.8861  -4.8671  -4.8031  -4.7346  -4.7030
    -4.6450  -4.2441  -4.1248  -3.9805  -3.6967  -3.6917  -3.6364  -3.5681
    -3.1589  -3.1487  -3.0986  -3.0927  -3.0304  -2.9112  -2.8752  -2.7477
    -2.7065  -2.7040  -2.6624  -2.6029  -2.5609  -2.4179  -2.2574  -2.1543
    -2.0465  -1.9624  -1.9606  -1.9023  -1.8889  -1.7654  -1.6692  -1.6580
    -1.6138  -1.4714  -1.4491  -1.3923  -1.3743  -1.3496  -1.1659  -1.1569
    -1.0853  -1.0601  -1.0417  -1.0119  -1.0086  -0.9454  -0.9249  -0.8797
    -0.8252  -0.7929  -0.7665  -0.7607  -0.7361  -0.6108  -0.5981  -0.5867
    -0.5317  -0.5250  -0.5175  -0.4486  -0.4411  -0.3836  -0.3790  -0.3505
    -0.3494  -0.3188  -0.2883  -0.2546  -0.2336  -0.1937  -0.1868  -0.1716
    -0.1295  -0.1252  -0.0780  -0.0217  -0.0114   0.0027   0.0251   0.0431
     0.0844   0.1070   0.1281   0.1647   0.2220   0.2237   0.2402   0.2532
     0.2791   0.3602   0.3706   0.3769   0.3917   0.4949   0.5068   0.5588
     0.5733   0.6092   0.6170   0.6190   0.6393   0.6625   0.6643   0.6968
     0.7048   0.7252   0.7331   0.7751   0.7903   0.8163   0.8425   0.8443
     0.8660   0.8679   0.9238   0.9350   0.9376   0.9453   0.9533   0.9580
     0.9939   1.0187   1.0324   1.0482   1.0590   1.0681   1.0880   1.0933
     1.1936   1.2106   1.2237   1.2271   1.2427   1.2579   1.2647   1.3330
     1.3490   1.3554   1.3683   1.3752   1.3833   1.4001   1.4566   1.5040
     1.5614   1.5827   1.5875   1.6041   1.6087   1.6126   1.6485   1.6700
     1.6714   1.7190   1.7330   1.7549   1.7743   1.7958   1.7995   1.8209
     1.8568   1.8586   1.9148   1.9226   2.0178   2.0256   2.0427   2.0506
     2.0855   2.0934   2.1693   2.1780   2.1808   2.1884   2.2389   2.2413
     2.2841   2.3134   2.3228   2.3243   2.3660   2.3698   2.3754   2.4291
     2.4396   2.4670   2.4694   2.5015   2.5099   2.5148   2.5384   2.5442
     2.5571   2.5716   2.5874   2.6079   2.6725   2.6956   2.7022   2.7135
     2.7580   2.7785   2.8254   2.8455   2.8709   2.9676   3.0078   3.1026
     3.1319   3.2158   3.5120   3.6077   3.6884   3.7193   3.7854   4.2052
     4.2114   4.5926   4.6418   4.8684   4.8709   5.2152   5.4425   5.6091
     5.6709   5.7440   5.7785   6.4254   6.4891   7.1641   7.3145   7.3330
     7.6605   8.1947   8.2423   8.2807   8.3679   8.3947   8.6487   8.8425
     8.9595   9.2807   9.2990   9.5353   9.5374   9.5704   9.5854   9.6154
     9.8225   9.9259   9.9951  10.4414  10.4906  10.5835  10.5955  10.6124
    10.6598  10.8713  10.9743  11.0329  11.0724  11.2060  11.2233  11.2584
    11.7559  11.7862  11.8961  11.9814  12.0278  12.0927  12.1096  12.5652
    12.6256  12.6459  12.6543  12.7186  12.8885  12.9621  12.9758  13.0250
    13.0586  13.1938  13.4037  13.4150  13.7495  13.7835  13.8310  13.8525
    13.8892  13.9212

          k = 0.0442 0.0255 0.0000 ( 34862 PWs)   bands (ev):

   -18.0158 -17.5968 -17.2457 -17.1488 -16.7966 -16.7667 -16.6958 -16.5055
    -9.0499  -5.7293  -5.1850  -4.8861  -4.8673  -4.8035  -4.7333  -4.7026
    -4.6446  -4.2443  -4.1260  -3.9811  -3.6971  -3.6914  -3.6367  -3.5678
    -3.1566  -3.1511  -3.0982  -3.0913  -3.0303  -2.9120  -2.8763  -2.7470
    -2.7079  -2.7054  -2.6632  -2.6046  -2.5623  -2.4115  -2.2542  -2.1536
    -2.0475  -1.9625  -1.9614  -1.9024  -1.8896  -1.7660  -1.6676  -1.6603
    -1.6118  -1.4715  -1.4497  -1.3963  -1.3753  -1.3505  -1.1639  -1.1542
    -1.0869  -1.0583  -1.0380  -1.0124  -1.0100  -0.9498  -0.9241  -0.8794
    -0.8232  -0.7919  -0.7653  -0.7591  -0.7347  -0.6113  -0.5986  -0.5876
    -0.5306  -0.5241  -0.5165  -0.4469  -0.4394  -0.3817  -0.3758  -0.3512
    -0.3496  -0.3165  -0.2862  -0.2509  -0.2331  -0.1964  -0.1884  -0.1736
    -0.1312  -0.1261  -0.0766  -0.0220  -0.0114   0.0028   0.0246   0.0440
     0.0868   0.1045   0.1269   0.1648   0.2233   0.2272   0.2404   0.2513
     0.2832   0.3603   0.3647   0.3740   0.3931   0.4920   0.5032   0.5556
     0.5722   0.6096   0.6172   0.6199   0.6410   0.6617   0.6675   0.6959
     0.7080   0.7275   0.7343   0.7726   0.7872   0.8116   0.8362   0.8406
     0.8604   0.8621   0.9228   0.9339   0.9388   0.9463   0.9514   0.9598
     0.9892   1.0176   1.0311   1.0506   1.0609   1.0705   1.0878   1.0936
     1.1888   1.2166   1.2276   1.2347   1.2419   1.2611   1.2698   1.3332
     1.3474   1.3553   1.3667   1.3767   1.3816   1.3976   1.4538   1.5048
     1.5624   1.5790   1.5864   1.6034   1.6077   1.6121   1.6484   1.6687
     1.6716   1.7073   1.7434   1.7547   1.7727   1.7960   1.8044   1.8201
     1.8539   1.8571   1.9157   1.9245   2.0181   2.0235   2.0415   2.0502
     2.0853   2.0929   2.1707   2.1785   2.1823   2.1888   2.2394   2.2418
     2.2841   2.3094   2.3223   2.3234   2.3644   2.3693   2.3759   2.4317
     2.4410   2.4657   2.4712   2.5041   2.5098   2.5164   2.5399   2.5425
     2.5599   2.5706   2.5869   2.6098   2.6733   2.6963   2.7035   2.7135
     2.7584   2.7788   2.8267   2.8461   2.8732   2.9613   3.0080   3.1028
     3.1317   3.2145   3.5084   3.6043   3.6851   3.7346   3.7875   4.2082
     4.2169   4.5917   4.6434   4.8689   4.8719   5.2091   5.4545   5.6072
     5.6694   5.7403   5.7770   6.4300   6.4942   7.1641   7.3027   7.3289
     7.6462   8.1954   8.2428   8.2833   8.3685   8.4030   8.6487   8.8423
     8.9429   9.2813   9.2988   9.5351   9.5408   9.5712   9.5914   9.6243
     9.7902   9.9254   9.9947  10.4419  10.4909  10.5894  10.6034  10.6347
    10.6762  10.8716  10.9741  11.0331  11.0728  11.2035  11.2194  11.2568
    11.7574  11.7867  11.8964  11.9810  12.0282  12.0867  12.1079  12.5691
    12.6266  12.6320  12.6472  12.7264  12.8856  12.9488  12.9757  13.0265
    13.0601  13.2105  13.3928  13.4136  13.7451  13.7828  13.8349  13.8472
    13.8900  13.9257

          k = 0.0442 0.0765 0.0000 ( 34881 PWs)   bands (ev):

   -17.8213 -17.7996 -17.4482 -16.9151 -16.8673 -16.6874 -16.6226 -16.6067
    -9.0365  -5.1704  -5.1202  -5.0802  -5.0093  -5.0030  -4.9432  -4.5944
    -4.4796  -4.3824  -4.2290  -4.2189  -4.0916  -3.5098  -3.5074  -3.4989
    -3.2061  -3.1619  -3.0079  -3.0039  -2.9770  -2.9031  -2.8746  -2.8341
    -2.8158  -2.7746  -2.7173  -2.7086  -2.5331  -2.4692  -2.2972  -1.9902
    -1.9526  -1.9174  -1.8086  -1.7839  -1.7773  -1.6100  -1.5806  -1.5660
    -1.5419  -1.5272  -1.4918  -1.4031  -1.3966  -1.3741  -1.2423  -1.2266
    -1.1673  -1.1500  -1.1482  -1.0743  -0.9746  -0.9575  -0.9532  -0.9068
    -0.8854  -0.8508  -0.7773  -0.6752  -0.6692  -0.6370  -0.6313  -0.5711
    -0.5556  -0.5415  -0.5259  -0.5013  -0.4367  -0.3853  -0.3629  -0.3600
    -0.2663  -0.2579  -0.2378  -0.2281  -0.2136  -0.1910  -0.1791  -0.1493
    -0.1468  -0.1344  -0.1264  -0.0859  -0.0819  -0.0523   0.0010   0.1089
     0.1826   0.1865   0.1927   0.1961   0.1990   0.2149   0.3372   0.3462
     0.3470   0.3580   0.3690   0.3697   0.3829   0.3888   0.3983   0.5726
     0.5740   0.5743   0.6007   0.6263   0.6371   0.6579   0.6651   0.6733
     0.6940   0.7495   0.7590   0.7822   0.7867   0.7959   0.8096   0.8315
     0.8409   0.8497   0.8942   0.9096   0.9273   0.9524   0.9617   0.9860
     1.0158   1.0303   1.0400   1.0498   1.0576   1.0797   1.0913   1.1894
     1.1990   1.2091   1.2161   1.2258   1.2516   1.2527   1.2541   1.2578
     1.3013   1.3126   1.3579   1.3764   1.3837   1.3897   1.5249   1.5541
     1.5713   1.5811   1.5853   1.5874   1.5916   1.6177   1.6300   1.6345
     1.6444   1.6550   1.6735   1.6788   1.7078   1.7474   1.8346   1.8441
     1.8525   1.8760   1.8811   1.8832   1.9796   1.9905   2.0082   2.0727
     2.0768   2.0808   2.1001   2.1158   2.1211   2.2036   2.2146   2.2166
     2.3077   2.3164   2.3182   2.4346   2.4363   2.4379   2.4594   2.4841
     2.4961   2.4998   2.5055   2.5197   2.5442   2.5536   2.5598   2.5714
     2.5745   2.5768   2.5835   2.5969   2.6397   2.6598   2.6670   2.6860
     2.6866   2.7777   2.7939   3.0569   3.1255   3.2166   3.2522   3.2562
     3.2619   3.5363   3.8157   3.8171   3.9803   4.1892   4.1969   4.2438
     4.4381   4.4499   4.7521   4.7888   4.8073   5.0277   5.0553   5.0803
     5.5823   5.6005   5.6130   5.6461   5.6701   5.7110   7.5153   7.5561
     7.6778   7.8979   7.8987   7.8991   8.1993   8.2346   8.2891   8.9245
     8.9427   8.9725   9.2685   9.2837   9.2931   9.5402   9.5422   9.5986
     9.8053   9.8284   9.8712  10.6069  10.6162  10.6878  10.7756  10.8088
    10.8513  11.5385  11.5811  11.6095  11.6115  11.6207  11.7234  11.7525
    11.7586  11.7919  12.0853  12.0995  12.1210  12.3780  12.4033  12.4416
    12.5510  12.5639  12.5874  12.8704  12.8715  12.9463  13.4611  13.4640
    13.4725  13.4851  13.4898  13.5981  13.6928  13.7188  13.8049  13.9813
    14.1037  14.1070

          k = 0.0442-0.0255 0.0000 ( 34862 PWs)   bands (ev):

   -18.0157 -17.5971 -17.2454 -17.1484 -16.7980 -16.7664 -16.6952 -16.5055
    -9.0499  -5.7294  -5.1851  -4.8843  -4.8701  -4.8033  -4.7313  -4.7036
    -4.6453  -4.2445  -4.1266  -3.9814  -3.6965  -3.6917  -3.6365  -3.5669
    -3.1591  -3.1471  -3.0973  -3.0921  -3.0308  -2.9132  -2.8730  -2.7479
    -2.7084  -2.7064  -2.6631  -2.6049  -2.5624  -2.4143  -2.2526  -2.1535
    -2.0473  -1.9628  -1.9619  -1.9022  -1.8905  -1.7656  -1.6671  -1.6604
    -1.6108  -1.4715  -1.4500  -1.3984  -1.3752  -1.3512  -1.1620  -1.1531
    -1.0879  -1.0564  -1.0376  -1.0127  -1.0106  -0.9524  -0.9242  -0.8800
    -0.8217  -0.7909  -0.7649  -0.7588  -0.7342  -0.6106  -0.5993  -0.5874
    -0.5295  -0.5232  -0.5167  -0.4456  -0.4382  -0.3806  -0.3742  -0.3520
    -0.3493  -0.3152  -0.2858  -0.2488  -0.2322  -0.1968  -0.1903  -0.1743
    -0.1312  -0.1264  -0.0763  -0.0225  -0.0116   0.0030   0.0238   0.0439
     0.0875   0.1045   0.1250   0.1646   0.2256   0.2281   0.2404   0.2508
     0.2856   0.3595   0.3616   0.3733   0.3942   0.4905   0.5000   0.5544
     0.5712   0.6098   0.6177   0.6196   0.6424   0.6613   0.6686   0.6954
     0.7106   0.7303   0.7344   0.7700   0.7837   0.8101   0.8330   0.8383
     0.8590   0.8601   0.9227   0.9350   0.9383   0.9452   0.9524   0.9586
     0.9855   1.0178   1.0312   1.0507   1.0621   1.0713   1.0878   1.0937
     1.1849   1.2195   1.2327   1.2367   1.2414   1.2628   1.2721   1.3336
     1.3464   1.3555   1.3661   1.3773   1.3805   1.3969   1.4519   1.5046
     1.5629   1.5782   1.5845   1.6031   1.6070   1.6120   1.6487   1.6690
     1.6712   1.7040   1.7442   1.7563   1.7715   1.7968   1.8061   1.8196
     1.8532   1.8557   1.9168   1.9247   2.0184   2.0226   2.0404   2.0499
     2.0851   2.0925   2.1715   2.1784   2.1831   2.1894   2.2396   2.2423
     2.2843   2.3069   2.3219   2.3229   2.3638   2.3683   2.3768   2.4334
     2.4423   2.4663   2.4709   2.5056   2.5099   2.5172   2.5402   2.5413
     2.5611   2.5699   2.5870   2.6106   2.6738   2.6974   2.7032   2.7135
     2.7593   2.7783   2.8282   2.8463   2.8747   2.9570   3.0088   3.1025
     3.1319   3.2132   3.5068   3.6021   3.6835   3.7427   3.7896   4.2085
     4.2194   4.5928   4.6445   4.8697   4.8723   5.2056   5.4621   5.6057
     5.6685   5.7396   5.7744   6.4324   6.4977   7.1641   7.3008   7.3215
     7.6403   8.1955   8.2430   8.2839   8.3715   8.4038   8.6488   8.8421
     8.9325   9.2810   9.2994   9.5370   9.5408   9.5734   9.5974   9.6255
     9.7719   9.9251   9.9945  10.4417  10.4920  10.6024  10.6144  10.6372
    10.6802  10.8716  10.9740  11.0331  11.0730  11.2025  11.2176  11.2549
    11.7584  11.7873  11.8964  11.9817  12.0284  12.0863  12.1040  12.5727
    12.6239  12.6295  12.6400  12.7297  12.8844  12.9463  12.9704  13.0272
    13.0609  13.2199  13.3926  13.4070  13.7421  13.7829  13.8379  13.8429
    13.8899  13.9271

     the Fermi energy is     2.3646 ev

!    total energy              =   -3903.73244262 Ry
     Harris-Foulkes estimate   =   -3903.73244517 Ry
     estimated scf accuracy    <       0.00000041 Ry

     The total energy is the sum of the following terms:

     one-electron contribution =  -26965.54550068 Ry
     hartree contribution      =   13906.07070448 Ry
     xc contribution           =   -1580.31419976 Ry
     ewald contribution        =   10736.20923652 Ry
     electric field correction =       0.00180610 Ry
     smearing contrib. (-TS)   =      -0.15448928 Ry

     total magnetization       =    16.56 Bohr mag/cell
     absolute magnetization    =    19.32 Bohr mag/cell

     convergence has been achieved in  12 iterations

     Forces acting on atoms (Ry/au):


     negative rho (up, down):  3.562E-04 3.172E-04
     atom    1 type  1   force =    -0.00011398    0.00012879    0.00473122
     atom    2 type  1   force =     0.00152745    0.00137396   -0.00388080
     atom    3 type  1   force =     0.00018542   -0.00039892   -0.00025054
     atom    4 type  1   force =    -0.00051041   -0.00034806   -0.00023896
     atom    5 type  1   force =    -0.00000209   -0.00011997    0.00478874
     atom    6 type  1   force =     0.00086345    0.00252143   -0.00389220
     atom    7 type  1   force =     0.00007396   -0.00022101   -0.00047628
     atom    8 type  1   force =     0.00075295   -0.00032541   -0.00005893
     atom    9 type  1   force =     0.00021456    0.00018818    0.00376423
     atom   10 type  1   force =    -0.00034529    0.00091755   -0.00578136
     atom   11 type  1   force =     0.00023232   -0.00036818    0.00022195
     atom   12 type  1   force =     0.00035417   -0.00130636    0.00020326
     atom   13 type  1   force =    -0.00002544   -0.00019778    0.00380358
     atom   14 type  1   force =    -0.00224741    0.00130945   -0.00386452
     atom   15 type  1   force =     0.00038300   -0.00013315   -0.00038456
     atom   16 type  1   force =     0.00030893   -0.00039506   -0.00002268
     atom   17 type  1   force =     0.00003531    0.00007589    0.00452397
     atom   18 type  1   force =    -0.00032410    0.00089455   -0.00336664
     atom   19 type  1   force =     0.00008648   -0.00020218    0.00020286
     atom   20 type  1   force =    -0.00052863   -0.00072068   -0.00072628
     atom   21 type  1   force =    -0.00024392    0.00017698    0.00378978
     atom   22 type  1   force =    -0.00097970   -0.00094760   -0.00373032
     atom   23 type  1   force =     0.00024524    0.00002511    0.00014004
     atom   24 type  1   force =     0.00004975   -0.00178674   -0.00056527
     atom   25 type  1   force =     0.00003733    0.00008530    0.00477822
     atom   26 type  1   force =    -0.00044129    0.00094963   -0.00807553
     atom   27 type  1   force =     0.00005723   -0.00065068   -0.00034616
     atom   28 type  1   force =     0.00042214   -0.00064973    0.00062985
     atom   29 type  1   force =    -0.00014120    0.00003876    0.00453706
     atom   30 type  1   force =    -0.00161547    0.00247398   -0.00384718
     atom   31 type  1   force =     0.00017482   -0.00059262   -0.00031715
     atom   32 type  1   force =     0.00016121   -0.00035754   -0.00030274
     atom   33 type  1   force =    -0.00008901   -0.00006019    0.00451585
     atom   34 type  1   force =     0.00020208   -0.00100002   -0.00374794
     atom   35 type  1   force =    -0.00041448   -0.00032815   -0.00012175
     atom   36 type  1   force =     0.00020770   -0.00023282    0.00030282
     atom   37 type  2   force =    -0.00022778    0.00029526    0.00070173
     atom   38 type  2   force =    -0.00016918    0.00061384    0.00033384
     atom   39 type  2   force =    -0.00043107    0.00011236    0.00063962
     atom   40 type  2   force =     0.00096855    0.00015521    0.00054575
     atom   41 type  2   force =     0.00031594   -0.00012767    0.00002549
     atom   42 type  2   force =     0.00117263   -0.00027337    0.00066663
     atom   43 type  2   force =    -0.00031426   -0.00016792    0.00001126
     atom   44 type  2   force =    -0.00035624   -0.00040428   -0.00023986
     atom   45 type  3   force =     0.00048833   -0.00002016    0.00037988

     Total force =     0.020529     Total SCF correction =     0.001915
 !ASE

     Writing output data file calc.save
 
     init_run     :     29.96s CPU     35.11s WALL (       1 calls)
     electrons    :  30988.37s CPU  35723.05s WALL (      16 calls)
     update_pot   :     45.46s CPU     47.76s WALL (      15 calls)
     forces       :    788.71s CPU    819.51s WALL (      16 calls)

     Called by init_run:
     wfcinit      :     19.83s CPU     24.30s WALL (       1 calls)
     potinit      :      1.12s CPU      1.26s WALL (       1 calls)

     Called by electrons:
     c_bands      :  21093.52s CPU  24722.83s WALL (     421 calls)
     sum_band     :   7186.50s CPU   8098.28s WALL (     421 calls)
     v_of_rho     :    145.63s CPU    169.39s WALL (     437 calls)
     newd         :   2619.31s CPU   2785.32s WALL (     437 calls)
     mix_rho      :     27.85s CPU     33.81s WALL (     421 calls)

     Called by c_bands:
     init_us_2    :    106.20s CPU    112.25s WALL (    8590 calls)
     cegterg      :  20502.88s CPU  24108.27s WALL (    4210 calls)

     Called by *egterg:
     h_psi        :  10047.71s CPU  12873.43s WALL (   11749 calls)
     s_psi        :   1709.81s CPU   1778.94s WALL (   11749 calls)
     g_psi        :     39.83s CPU     40.73s WALL (    7529 calls)
     cdiaghg      :   3861.21s CPU   3958.24s WALL (   11589 calls)

     Called by h_psi:
     add_vuspsi   :   1722.01s CPU   1790.37s WALL (   11749 calls)

     General routines
     calbec       :   2683.27s CPU   2755.55s WALL (   16119 calls)
     fft          :    134.49s CPU    158.46s WALL (   13691 calls)
     ffts         :      2.12s CPU      2.89s WALL (    1716 calls)
     fftw         :   5352.57s CPU   8653.49s WALL ( 6874410 calls)
     interpolate  :     16.39s CPU     23.40s WALL (    1716 calls)
     davcio       :      0.02s CPU      0.85s WALL (      10 calls)
 
     Parallel routines
     fft_scatter  :   3077.64s CPU   4956.26s WALL ( 6889817 calls)
 
     PWSCF        :     8h52m CPU       10h12m WALL

 
   This run was terminated on:   2: 1: 9  19Mar2017            

=------------------------------------------------------------------------------=
   JOB DONE.
=------------------------------------------------------------------------------=
