  python dir          : /home/vossj/suncat/lib/python2.7/site-packages/espresso
  espresso dir        : /home/vossj/suncat/esdld/espresso-dynpy-beef/bin
  pseudo dir          : /home/alatimer/bin/psp/esp_psp_w_gbrvRu/
  ase-espresso py git : ffa2778-git



     Program PWSCF v.5.1rc2 (svn rev. ) starts on 24Feb2018 at  4:45: 1 

     This program is part of the open-source Quantum ESPRESSO suite
     for quantum simulation of materials; please cite
         "P. Giannozzi et al., J. Phys.:Condens. Matter 21 395502 (2009);
          URL http://www.quantum-espresso.org", 
     in publications or presentations arising from this work. More details at
     http://www.quantum-espresso.org/quote

     Parallel version (MPI), running on    16 processors
     R & G space division:  proc/nbgrp/npool/nimage =      16
     Reading input from pw.inp
     Message from routine read_cards :
     DEPRECATED: no units specified in CELL_PARAMETERS card

     Current dimensions of program PWSCF are:
     Max number of different atomic species (ntypx) = 10
     Max number of k-points (npk) =  40000
     Max angular momentum in pseudopotentials (lmaxx) =  3
     Presently no symmetry can be used with electric field


     IMPORTANT: XC functional enforced from input :
     Exchange-correlation      = RPBE ( 1  4 28  4 0)
     Any further DFT definition will be discarded
     Please, verify this is what you really want


     Subspace diagonalization in iterative solution of the eigenvalue problem:
     a serial algorithm will be used

 
     Parallelization info
     --------------------
     sticks:   dense  smooth     PW     G-vecs:    dense   smooth      PW
     Min         636     254     68               100790    25480    3562
     Max         637     255     69               100796    25523    3569
     Sum       10181    4073   1103              1612669   408063   57071
 
     Generating pointlists ...
     new r_m :   0.4125 (alat units)  0.7795 (a.u.) for type    1
     new r_m :   0.4125 (alat units)  0.7795 (a.u.) for type    2


     bravais-lattice index     =            0
     lattice parameter (alat)  =       1.8897  a.u.
     unit-cell volume          =   10312.9744 (a.u.)^3
     number of atoms/cell      =           37
     number of atomic types    =            2
     number of electrons       =       330.00
     number of Kohn-Sham states=          265
     kinetic-energy cutoff     =      44.0992  Ry
     charge density cutoff     =     440.9919  Ry
     convergence threshold     =      7.3E-07
     mixing beta               =       0.1000
     number of iterations used =           10  plain     mixing
     Exchange-correlation      = RPBE ( 1  4 28  4 0)
     nstep                     =           50


     celldm(1)=   1.889726  celldm(2)=   0.000000  celldm(3)=   0.000000
     celldm(4)=   0.000000  celldm(5)=   0.000000  celldm(6)=   0.000000

     crystal axes: (cart. coord. in units of alat)
               a(1) = (  13.134537   0.000000   0.000000 )  
               a(2) = (  -4.378179   6.191680   0.000000 )  
               a(3) = (   0.000000   0.000000  18.791614 )  

     reciprocal axes: (cart. coord. in units 2 pi/alat)
               b(1) = (  0.076135  0.053836  0.000000 )  
               b(2) = (  0.000000  0.161507  0.000000 )  
               b(3) = (  0.000000  0.000000  0.053215 )  


     PseudoPot. # 1 for Co read from file:
     /home/alatimer/bin/psp/esp_psp_w_gbrvRu/Co.UPF
     MD5 check sum: f36dda9fe147c5f42efc2a4f7ec0da3d
     Pseudo is Ultrasoft + core correction, Zval =  9.0
     Generated by new atomic code, or converted to UPF format
     Using radial grid of  937 points,  3 beta functions with: 
                l(1) =   1
                l(2) =   2
                l(3) =   2
     Q(r) pseudized with  8 coefficients,  rinner =    1.000   1.000   1.000
                                                       1.000   1.000

     PseudoPot. # 2 for  O read from file:
     /home/alatimer/bin/psp/esp_psp_w_gbrvRu/O.UPF
     MD5 check sum: e057bbcf3229fb5d8c36c0c92f9568b4
     Pseudo is Ultrasoft + core correction, Zval =  6.0
     Generated using "atomic" code by A. Dal Corso  v.5.0.2 svn rev. 9415
     Using radial grid of 1095 points,  4 beta functions with: 
                l(1) =   0
                l(2) =   0
                l(3) =   1
                l(4) =   1
     Q(r) pseudized with 0 coefficients 


     atomic species   valence    mass     pseudopotential
        Co1            9.00    58.93320     Co( 1.00)
        O1             6.00    15.99940      O( 1.00)

     Starting magnetic structure 
     atomic species   magnetization
        Co1          0.444
        O1           0.667

     No symmetry found



   Cartesian axes

     site n.     atom                  positions (alat units)
         1           Co1 tau(   1) = (   0.0000000   0.0000000   7.5000000  )
         2           Co1 tau(   2) = (   2.1890894   0.0000000   8.7638714  )
         3           Co1 tau(   3) = (   0.0000000   0.0000000  10.0277427  )
         4           Co1 tau(   4) = (   2.1890894   0.0000000  11.2916141  )
         5           Co1 tau(   5) = (  -1.4593930   2.0638933   7.5000000  )
         6           Co1 tau(   6) = (   0.7296965   2.0638933   8.7638714  )
         7           Co1 tau(   7) = (  -1.4593930   2.0638933  10.0277427  )
         8           Co1 tau(   8) = (   0.7296965   2.0638933  11.2916141  )
         9           Co1 tau(   9) = (  -2.9187859   4.1277866   7.5000000  )
        10           Co1 tau(  10) = (  -0.7296965   4.1277866   8.7638714  )
        11           Co1 tau(  11) = (  -2.9187859   4.1277866  10.0277427  )
        12           Co1 tau(  12) = (  -0.7296965   4.1277866  11.2916141  )
        13           Co1 tau(  13) = (   4.3781789   0.0000000   7.5000000  )
        14           Co1 tau(  14) = (   6.5672683   0.0000000   8.7638714  )
        15           Co1 tau(  15) = (   4.3781789   0.0000000  10.0277427  )
        16           Co1 tau(  16) = (   6.5672683   0.0000000  11.2916141  )
        17           Co1 tau(  17) = (   2.9187859   2.0638933   7.5000000  )
        18           Co1 tau(  18) = (   5.1078753   2.0638933   8.7638714  )
        19           Co1 tau(  19) = (   2.9187859   2.0638933  10.0277427  )
        20           Co1 tau(  20) = (   5.1078753   2.0638933  11.2916141  )
        21           Co1 tau(  21) = (   1.4593930   4.1277866   7.5000000  )
        22           Co1 tau(  22) = (   3.6484824   4.1277866   8.7638714  )
        23           Co1 tau(  23) = (   1.4593930   4.1277866  10.0277427  )
        24           Co1 tau(  24) = (   3.6484824   4.1277866  11.2916141  )
        25           Co1 tau(  25) = (   8.7563577   0.0000000   7.5000000  )
        26           Co1 tau(  26) = (  10.9454471   0.0000000   8.7638714  )
        27           Co1 tau(  27) = (   8.7563577   0.0000000  10.0277427  )
        28           Co1 tau(  28) = (  10.9454471   0.0000000  11.2916141  )
        29           Co1 tau(  29) = (   7.2969648   2.0638933   7.5000000  )
        30           Co1 tau(  30) = (   9.4860542   2.0638933   8.7638714  )
        31           Co1 tau(  31) = (   7.2969648   2.0638933  10.0277427  )
        32           Co1 tau(  32) = (   9.4860542   2.0638933  11.2916141  )
        33           Co1 tau(  33) = (   5.8375718   4.1277866   7.5000000  )
        34           Co1 tau(  34) = (   8.0266612   4.1277866   8.7638714  )
        35           Co1 tau(  35) = (   5.8375718   4.1277866  10.0277427  )
        36           Co1 tau(  36) = (   8.0266612   4.1277866  11.2916141  )
        37           O1  tau(  37) = (   1.4593930   1.0319467  12.6916141  )

     number of k points=    10  Fermi-Dirac smearing, width (Ry)=  0.0073
                       cart. coord. in units 2pi/alat
        k(    1) = (   0.0000000   0.0000000   0.0000000), wk =   0.1111111
        k(    2) = (   0.0000000   0.0538357   0.0000000), wk =   0.2222222
        k(    3) = (   0.0253784   0.0179452   0.0000000), wk =   0.2222222
        k(    4) = (   0.0253784   0.0717809   0.0000000), wk =   0.2222222
        k(    5) = (   0.0253784  -0.0358905   0.0000000), wk =   0.2222222
        k(    6) = (   0.0000000   0.0000000   0.0000000), wk =   0.1111111
        k(    7) = (   0.0000000   0.0538357   0.0000000), wk =   0.2222222
        k(    8) = (   0.0253784   0.0179452   0.0000000), wk =   0.2222222
        k(    9) = (   0.0253784   0.0717809   0.0000000), wk =   0.2222222
        k(   10) = (   0.0253784  -0.0358905   0.0000000), wk =   0.2222222

     Dense  grid:  1612669 G-vectors     FFT dimensions: ( 180,  96, 240)

     Smooth grid:   408063 G-vectors     FFT dimensions: ( 108,  64, 160)

     Largest allocated arrays     est. size (Mb)     dimensions
        Kohn-Sham Wavefunctions        12.96 Mb     (    3206,  265)
        NL pseudopotentials            23.29 Mb     (    3206,  476)
        Each V/rho on FFT grid          7.91 Mb     (  259200,   2)
        Each G-vector array             0.77 Mb     (  100790)
        G-vector shells                 0.34 Mb     (   44082)
     Largest temporary arrays     est. size (Mb)     dimensions
        Auxiliary wavefunctions        51.85 Mb     (    3206, 1060)
        Each subspace H/S matrix       17.14 Mb     (    1060, 1060)
        Each <psi_i|beta_j> matrix      1.92 Mb     (     476,  265)
        Arrays for rho mixing          39.55 Mb     (  259200,   10)

     Check: negative/imaginary core charge=   -0.000003    0.000000

     Initial potential from superposition of free atoms
     Check: negative starting charge=(component1):   -0.002791
     Check: negative starting charge=(component2):   -0.001075

     starting charge  329.99032, renormalised to  330.00000

     negative rho (up, down):  2.791E-03 1.075E-03
 
     Adding external electric field

     Computed dipole along edir(3) : 
        Dipole               -0.0011 Ry au,         -0.0028 Debye
        Dipole field         -0.0000 Ry au
 
        Potential amp.        0.0001 Ry
        Total length         34.6232 bohr
 
 
     Adding external electric field

     Computed dipole along edir(3) : 
        Dipole               -0.0011 Ry au,         -0.0028 Debye
        Dipole field         -0.0000 Ry au
 
        Potential amp.        0.0001 Ry
        Total length         34.6232 bohr
 
     Starting wfc are  328 randomized atomic wfcs

     total cpu time spent up to now is       38.9 secs

     Self-consistent Calculation

     iteration #  1     ecut=    44.10 Ry     beta=0.10
     Davidson diagonalization with overlap
     ethr =  1.00E-02,  avg # of iterations =  7.1

     negative rho (up, down):  2.760E-03 1.136E-03
 
     Adding external electric field

     Computed dipole along edir(3) : 
        Dipole               -0.2807 Ry au,         -0.7135 Debye
        Dipole field         -0.0003 Ry au
 
        Potential amp.        0.0237 Ry
        Total length         34.6232 bohr
 
 
     Adding external electric field

     Computed dipole along edir(3) : 
        Dipole               -0.2807 Ry au,         -0.7135 Debye
        Dipole field         -0.0003 Ry au
 
        Potential amp.        0.0237 Ry
        Total length         34.6232 bohr
 
 
     Magnetic moment per site:
     atom:    1    charge:    3.1927    magn:    1.4060    constr:    0.0000
     atom:    2    charge:    3.2427    magn:    1.3582    constr:    0.0000
     atom:    3    charge:    3.2409    magn:    1.3615    constr:    0.0000
     atom:    4    charge:    3.2012    magn:    1.3989    constr:    0.0000
     atom:    5    charge:    3.1925    magn:    1.4058    constr:    0.0000
     atom:    6    charge:    3.2427    magn:    1.3582    constr:    0.0000
     atom:    7    charge:    3.2416    magn:    1.3597    constr:    0.0000
     atom:    8    charge:    3.2012    magn:    1.3989    constr:    0.0000
     atom:    9    charge:    3.1925    magn:    1.4058    constr:    0.0000
     atom:   10    charge:    3.2412    magn:    1.3606    constr:    0.0000
     atom:   11    charge:    3.2416    magn:    1.3597    constr:    0.0000
     atom:   12    charge:    3.1942    magn:    1.4045    constr:    0.0000
     atom:   13    charge:    3.1925    magn:    1.4058    constr:    0.0000
     atom:   14    charge:    3.2410    magn:    1.3602    constr:    0.0000
     atom:   15    charge:    3.2416    magn:    1.3597    constr:    0.0000
     atom:   16    charge:    3.1920    magn:    1.4061    constr:    0.0000
     atom:   17    charge:    3.1927    magn:    1.4060    constr:    0.0000
     atom:   18    charge:    3.2411    magn:    1.3602    constr:    0.0000
     atom:   19    charge:    3.2409    magn:    1.3616    constr:    0.0000
     atom:   20    charge:    3.1922    magn:    1.4060    constr:    0.0000
     atom:   21    charge:    3.1925    magn:    1.4058    constr:    0.0000
     atom:   22    charge:    3.2411    magn:    1.3602    constr:    0.0000
     atom:   23    charge:    3.2416    magn:    1.3597    constr:    0.0000
     atom:   24    charge:    3.1922    magn:    1.4060    constr:    0.0000
     atom:   25    charge:    3.1925    magn:    1.4058    constr:    0.0000
     atom:   26    charge:    3.2411    magn:    1.3602    constr:    0.0000
     atom:   27    charge:    3.2411    magn:    1.3602    constr:    0.0000
     atom:   28    charge:    3.1922    magn:    1.4060    constr:    0.0000
     atom:   29    charge:    3.1925    magn:    1.4058    constr:    0.0000
     atom:   30    charge:    3.2410    magn:    1.3602    constr:    0.0000
     atom:   31    charge:    3.2411    magn:    1.3601    constr:    0.0000
     atom:   32    charge:    3.1920    magn:    1.4061    constr:    0.0000
     atom:   33    charge:    3.1922    magn:    1.4060    constr:    0.0000
     atom:   34    charge:    3.2411    magn:    1.3602    constr:    0.0000
     atom:   35    charge:    3.2413    magn:    1.3600    constr:    0.0000
     atom:   36    charge:    3.1922    magn:    1.4060    constr:    0.0000
     atom:   37    charge:    2.0015    magn:    1.2584    constr:    0.0000

     total cpu time spent up to now is      149.9 secs

     total energy              =   -2914.32822860 Ry
     Harris-Foulkes estimate   =   -2916.86273595 Ry
     estimated scf accuracy    <      18.55207463 Ry

     total magnetization       =    75.49 Bohr mag/cell
     absolute magnetization    =    75.54 Bohr mag/cell

     iteration #  2     ecut=    44.10 Ry     beta=0.10
     Davidson diagonalization with overlap
     ethr =  5.62E-03,  avg # of iterations =  1.1

     negative rho (up, down):  3.224E-03 1.950E-03
 
     Adding external electric field

     Computed dipole along edir(3) : 
        Dipole                0.0000 Ry au,          0.0001 Debye
        Dipole field          0.0000 Ry au
 
        Potential amp.       -0.0000 Ry
        Total length         34.6232 bohr
 
 
     Adding external electric field

     Computed dipole along edir(3) : 
        Dipole                0.0000 Ry au,          0.0001 Debye
        Dipole field          0.0000 Ry au
 
        Potential amp.       -0.0000 Ry
        Total length         34.6232 bohr
 
 
     Magnetic moment per site:
     atom:    1    charge:    3.2197    magn:    1.3738    constr:    0.0000
     atom:    2    charge:    3.2178    magn:    1.3614    constr:    0.0000
     atom:    3    charge:    3.2168    magn:    1.3655    constr:    0.0000
     atom:    4    charge:    3.2137    magn:    1.3794    constr:    0.0000
     atom:    5    charge:    3.2197    magn:    1.3734    constr:    0.0000
     atom:    6    charge:    3.2178    magn:    1.3614    constr:    0.0000
     atom:    7    charge:    3.2179    magn:    1.3625    constr:    0.0000
     atom:    8    charge:    3.2137    magn:    1.3794    constr:    0.0000
     atom:    9    charge:    3.2197    magn:    1.3734    constr:    0.0000
     atom:   10    charge:    3.2177    magn:    1.3637    constr:    0.0000
     atom:   11    charge:    3.2179    magn:    1.3625    constr:    0.0000
     atom:   12    charge:    3.2170    magn:    1.3759    constr:    0.0000
     atom:   13    charge:    3.2197    magn:    1.3734    constr:    0.0000
     atom:   14    charge:    3.2198    magn:    1.3614    constr:    0.0000
     atom:   15    charge:    3.2179    magn:    1.3625    constr:    0.0000
     atom:   16    charge:    3.2183    magn:    1.3745    constr:    0.0000
     atom:   17    charge:    3.2196    magn:    1.3738    constr:    0.0000
     atom:   18    charge:    3.2198    magn:    1.3615    constr:    0.0000
     atom:   19    charge:    3.2168    magn:    1.3655    constr:    0.0000
     atom:   20    charge:    3.2182    magn:    1.3746    constr:    0.0000
     atom:   21    charge:    3.2197    magn:    1.3734    constr:    0.0000
     atom:   22    charge:    3.2198    magn:    1.3614    constr:    0.0000
     atom:   23    charge:    3.2179    magn:    1.3625    constr:    0.0000
     atom:   24    charge:    3.2182    magn:    1.3746    constr:    0.0000
     atom:   25    charge:    3.2204    magn:    1.3727    constr:    0.0000
     atom:   26    charge:    3.2198    magn:    1.3615    constr:    0.0000
     atom:   27    charge:    3.2193    magn:    1.3619    constr:    0.0000
     atom:   28    charge:    3.2182    magn:    1.3746    constr:    0.0000
     atom:   29    charge:    3.2204    magn:    1.3727    constr:    0.0000
     atom:   30    charge:    3.2198    magn:    1.3614    constr:    0.0000
     atom:   31    charge:    3.2193    magn:    1.3618    constr:    0.0000
     atom:   32    charge:    3.2183    magn:    1.3745    constr:    0.0000
     atom:   33    charge:    3.2202    magn:    1.3728    constr:    0.0000
     atom:   34    charge:    3.2198    magn:    1.3615    constr:    0.0000
     atom:   35    charge:    3.2193    magn:    1.3618    constr:    0.0000
     atom:   36    charge:    3.2182    magn:    1.3746    constr:    0.0000
     atom:   37    charge:    2.0084    magn:    1.2327    constr:    0.0000

     total cpu time spent up to now is      224.2 secs

     total energy              =   -2914.87756649 Ry
     Harris-Foulkes estimate   =   -2918.37269212 Ry
     estimated scf accuracy    <      62.35213829 Ry

     total magnetization       =    75.88 Bohr mag/cell
     absolute magnetization    =    76.04 Bohr mag/cell

     iteration #  3     ecut=    44.10 Ry     beta=0.10
     Davidson diagonalization with overlap
     ethr =  5.62E-03,  avg # of iterations =  1.0

     negative rho (up, down):  3.509E-03 2.375E-03
 
     Adding external electric field

     Computed dipole along edir(3) : 
        Dipole               -0.9875 Ry au,         -2.5099 Debye
        Dipole field         -0.0012 Ry au
 
        Potential amp.        0.0833 Ry
        Total length         34.6232 bohr
 
 
     Adding external electric field

     Computed dipole along edir(3) : 
        Dipole               -0.9875 Ry au,         -2.5099 Debye
        Dipole field         -0.0012 Ry au
 
        Potential amp.        0.0833 Ry
        Total length         34.6232 bohr
 
 
     Magnetic moment per site:
     atom:    1    charge:    3.2226    magn:    1.3491    constr:    0.0000
     atom:    2    charge:    3.2168    magn:    1.3313    constr:    0.0000
     atom:    3    charge:    3.2166    magn:    1.3366    constr:    0.0000
     atom:    4    charge:    3.2234    magn:    1.3492    constr:    0.0000
     atom:    5    charge:    3.2226    magn:    1.3487    constr:    0.0000
     atom:    6    charge:    3.2168    magn:    1.3313    constr:    0.0000
     atom:    7    charge:    3.2158    magn:    1.3338    constr:    0.0000
     atom:    8    charge:    3.2234    magn:    1.3492    constr:    0.0000
     atom:    9    charge:    3.2226    magn:    1.3487    constr:    0.0000
     atom:   10    charge:    3.2158    magn:    1.3355    constr:    0.0000
     atom:   11    charge:    3.2158    magn:    1.3338    constr:    0.0000
     atom:   12    charge:    3.2293    magn:    1.3434    constr:    0.0000
     atom:   13    charge:    3.2226    magn:    1.3487    constr:    0.0000
     atom:   14    charge:    3.2107    magn:    1.3384    constr:    0.0000
     atom:   15    charge:    3.2158    magn:    1.3338    constr:    0.0000
     atom:   16    charge:    3.2277    magn:    1.3441    constr:    0.0000
     atom:   17    charge:    3.2226    magn:    1.3491    constr:    0.0000
     atom:   18    charge:    3.2110    magn:    1.3383    constr:    0.0000
     atom:   19    charge:    3.2166    magn:    1.3366    constr:    0.0000
     atom:   20    charge:    3.2276    magn:    1.3442    constr:    0.0000
     atom:   21    charge:    3.2226    magn:    1.3487    constr:    0.0000
     atom:   22    charge:    3.2110    magn:    1.3383    constr:    0.0000
     atom:   23    charge:    3.2158    magn:    1.3338    constr:    0.0000
     atom:   24    charge:    3.2276    magn:    1.3442    constr:    0.0000
     atom:   25    charge:    3.2184    magn:    1.3525    constr:    0.0000
     atom:   26    charge:    3.2110    magn:    1.3383    constr:    0.0000
     atom:   27    charge:    3.2112    magn:    1.3382    constr:    0.0000
     atom:   28    charge:    3.2276    magn:    1.3442    constr:    0.0000
     atom:   29    charge:    3.2184    magn:    1.3525    constr:    0.0000
     atom:   30    charge:    3.2107    magn:    1.3384    constr:    0.0000
     atom:   31    charge:    3.2112    magn:    1.3382    constr:    0.0000
     atom:   32    charge:    3.2277    magn:    1.3441    constr:    0.0000
     atom:   33    charge:    3.2188    magn:    1.3520    constr:    0.0000
     atom:   34    charge:    3.2110    magn:    1.3383    constr:    0.0000
     atom:   35    charge:    3.2117    magn:    1.3377    constr:    0.0000
     atom:   36    charge:    3.2276    magn:    1.3442    constr:    0.0000
     atom:   37    charge:    2.0212    magn:    1.1767    constr:    0.0000

     total cpu time spent up to now is      297.8 secs

     total energy              =   -2916.36921337 Ry
     Harris-Foulkes estimate   =   -2916.45833736 Ry
     estimated scf accuracy    <       3.80134454 Ry

     total magnetization       =    76.95 Bohr mag/cell
     absolute magnetization    =    77.08 Bohr mag/cell

     iteration #  4     ecut=    44.10 Ry     beta=0.10
     Davidson diagonalization with overlap
     ethr =  1.15E-03,  avg # of iterations =  6.1

     negative rho (up, down):  3.072E-03 2.567E-03
 
     Adding external electric field

     Computed dipole along edir(3) : 
        Dipole               -0.1334 Ry au,         -0.3392 Debye
        Dipole field         -0.0002 Ry au
 
        Potential amp.        0.0113 Ry
        Total length         34.6232 bohr
 
 
     Adding external electric field

     Computed dipole along edir(3) : 
        Dipole               -0.1334 Ry au,         -0.3392 Debye
        Dipole field         -0.0002 Ry au
 
        Potential amp.        0.0113 Ry
        Total length         34.6232 bohr
 
 
     Magnetic moment per site:
     atom:    1    charge:    3.2348    magn:    1.3008    constr:    0.0000
     atom:    2    charge:    3.2120    magn:    1.2841    constr:    0.0000
     atom:    3    charge:    3.2102    magn:    1.2936    constr:    0.0000
     atom:    4    charge:    3.2215    magn:    1.3129    constr:    0.0000
     atom:    5    charge:    3.2353    magn:    1.2999    constr:    0.0000
     atom:    6    charge:    3.2120    magn:    1.2841    constr:    0.0000
     atom:    7    charge:    3.2083    magn:    1.2898    constr:    0.0000
     atom:    8    charge:    3.2215    magn:    1.3129    constr:    0.0000
     atom:    9    charge:    3.2353    magn:    1.2999    constr:    0.0000
     atom:   10    charge:    3.2108    magn:    1.2902    constr:    0.0000
     atom:   11    charge:    3.2083    magn:    1.2898    constr:    0.0000
     atom:   12    charge:    3.2290    magn:    1.3066    constr:    0.0000
     atom:   13    charge:    3.2353    magn:    1.2999    constr:    0.0000
     atom:   14    charge:    3.2055    magn:    1.2925    constr:    0.0000
     atom:   15    charge:    3.2083    magn:    1.2898    constr:    0.0000
     atom:   16    charge:    3.2283    magn:    1.3060    constr:    0.0000
     atom:   17    charge:    3.2348    magn:    1.3008    constr:    0.0000
     atom:   18    charge:    3.2058    magn:    1.2925    constr:    0.0000
     atom:   19    charge:    3.2102    magn:    1.2937    constr:    0.0000
     atom:   20    charge:    3.2281    magn:    1.3063    constr:    0.0000
     atom:   21    charge:    3.2353    magn:    1.2999    constr:    0.0000
     atom:   22    charge:    3.2058    magn:    1.2925    constr:    0.0000
     atom:   23    charge:    3.2083    magn:    1.2898    constr:    0.0000
     atom:   24    charge:    3.2281    magn:    1.3063    constr:    0.0000
     atom:   25    charge:    3.2337    magn:    1.3016    constr:    0.0000
     atom:   26    charge:    3.2058    magn:    1.2925    constr:    0.0000
     atom:   27    charge:    3.2036    magn:    1.2948    constr:    0.0000
     atom:   28    charge:    3.2281    magn:    1.3063    constr:    0.0000
     atom:   29    charge:    3.2337    magn:    1.3016    constr:    0.0000
     atom:   30    charge:    3.2056    magn:    1.2925    constr:    0.0000
     atom:   31    charge:    3.2036    magn:    1.2947    constr:    0.0000
     atom:   32    charge:    3.2283    magn:    1.3060    constr:    0.0000
     atom:   33    charge:    3.2344    magn:    1.3006    constr:    0.0000
     atom:   34    charge:    3.2058    magn:    1.2925    constr:    0.0000
     atom:   35    charge:    3.2043    magn:    1.2940    constr:    0.0000
     atom:   36    charge:    3.2281    magn:    1.3063    constr:    0.0000
     atom:   37    charge:    2.0401    magn:    1.0840    constr:    0.0000

     total cpu time spent up to now is      389.8 secs

     total energy              =   -2916.31934557 Ry
     Harris-Foulkes estimate   =   -2916.93739506 Ry
     estimated scf accuracy    <      33.81268903 Ry

     total magnetization       =    76.44 Bohr mag/cell
     absolute magnetization    =    76.55 Bohr mag/cell

     iteration #  5     ecut=    44.10 Ry     beta=0.10
     Davidson diagonalization with overlap
     ethr =  1.15E-03,  avg # of iterations =  4.8

     negative rho (up, down):  3.443E-03 2.971E-03
 
     Adding external electric field

     Computed dipole along edir(3) : 
        Dipole               -0.4468 Ry au,         -1.1357 Debye
        Dipole field         -0.0005 Ry au
 
        Potential amp.        0.0377 Ry
        Total length         34.6232 bohr
 
 
     Adding external electric field

     Computed dipole along edir(3) : 
        Dipole               -0.4468 Ry au,         -1.1357 Debye
        Dipole field         -0.0005 Ry au
 
        Potential amp.        0.0377 Ry
        Total length         34.6232 bohr
 
 
     Magnetic moment per site:
     atom:    1    charge:    3.2324    magn:    1.2876    constr:    0.0000
     atom:    2    charge:    3.2052    magn:    1.2704    constr:    0.0000
     atom:    3    charge:    3.2056    magn:    1.2794    constr:    0.0000
     atom:    4    charge:    3.2172    magn:    1.3017    constr:    0.0000
     atom:    5    charge:    3.2330    magn:    1.2865    constr:    0.0000
     atom:    6    charge:    3.2052    magn:    1.2704    constr:    0.0000
     atom:    7    charge:    3.2052    magn:    1.2737    constr:    0.0000
     atom:    8    charge:    3.2172    magn:    1.3017    constr:    0.0000
     atom:    9    charge:    3.2330    magn:    1.2865    constr:    0.0000
     atom:   10    charge:    3.2053    magn:    1.2763    constr:    0.0000
     atom:   11    charge:    3.2052    magn:    1.2737    constr:    0.0000
     atom:   12    charge:    3.2281    magn:    1.2927    constr:    0.0000
     atom:   13    charge:    3.2330    magn:    1.2865    constr:    0.0000
     atom:   14    charge:    3.2063    magn:    1.2734    constr:    0.0000
     atom:   15    charge:    3.2052    magn:    1.2737    constr:    0.0000
     atom:   16    charge:    3.2331    magn:    1.2866    constr:    0.0000
     atom:   17    charge:    3.2324    magn:    1.2876    constr:    0.0000
     atom:   18    charge:    3.2062    magn:    1.2737    constr:    0.0000
     atom:   19    charge:    3.2056    magn:    1.2794    constr:    0.0000
     atom:   20    charge:    3.2325    magn:    1.2873    constr:    0.0000
     atom:   21    charge:    3.2330    magn:    1.2865    constr:    0.0000
     atom:   22    charge:    3.2062    magn:    1.2737    constr:    0.0000
     atom:   23    charge:    3.2052    magn:    1.2737    constr:    0.0000
     atom:   24    charge:    3.2325    magn:    1.2873    constr:    0.0000
     atom:   25    charge:    3.2361    magn:    1.2841    constr:    0.0000
     atom:   26    charge:    3.2062    magn:    1.2737    constr:    0.0000
     atom:   27    charge:    3.2066    magn:    1.2739    constr:    0.0000
     atom:   28    charge:    3.2325    magn:    1.2873    constr:    0.0000
     atom:   29    charge:    3.2361    magn:    1.2841    constr:    0.0000
     atom:   30    charge:    3.2063    magn:    1.2734    constr:    0.0000
     atom:   31    charge:    3.2066    magn:    1.2739    constr:    0.0000
     atom:   32    charge:    3.2331    magn:    1.2866    constr:    0.0000
     atom:   33    charge:    3.2363    magn:    1.2835    constr:    0.0000
     atom:   34    charge:    3.2062    magn:    1.2737    constr:    0.0000
     atom:   35    charge:    3.2070    magn:    1.2735    constr:    0.0000
     atom:   36    charge:    3.2325    magn:    1.2873    constr:    0.0000
     atom:   37    charge:    2.0461    magn:    1.0478    constr:    0.0000

     total cpu time spent up to now is      475.6 secs

     total energy              =   -2916.78123932 Ry
     Harris-Foulkes estimate   =   -2916.92368942 Ry
     estimated scf accuracy    <       8.19247945 Ry

     total magnetization       =    76.73 Bohr mag/cell
     absolute magnetization    =    76.93 Bohr mag/cell

     iteration #  6     ecut=    44.10 Ry     beta=0.10
     Davidson diagonalization with overlap
     ethr =  1.15E-03,  avg # of iterations =  1.6

     negative rho (up, down):  3.099E-03 3.147E-03
 
     Adding external electric field

     Computed dipole along edir(3) : 
        Dipole               -0.4240 Ry au,         -1.0777 Debye
        Dipole field         -0.0005 Ry au
 
        Potential amp.        0.0358 Ry
        Total length         34.6232 bohr
 
 
     Adding external electric field

     Computed dipole along edir(3) : 
        Dipole               -0.4240 Ry au,         -1.0777 Debye
        Dipole field         -0.0005 Ry au
 
        Potential amp.        0.0358 Ry
        Total length         34.6232 bohr
 
 
     Magnetic moment per site:
     atom:    1    charge:    3.2315    magn:    1.2514    constr:    0.0000
     atom:    2    charge:    3.2022    magn:    1.2319    constr:    0.0000
     atom:    3    charge:    3.2007    magn:    1.2455    constr:    0.0000
     atom:    4    charge:    3.2111    magn:    1.2733    constr:    0.0000
     atom:    5    charge:    3.2313    magn:    1.2510    constr:    0.0000
     atom:    6    charge:    3.2022    magn:    1.2319    constr:    0.0000
     atom:    7    charge:    3.2026    magn:    1.2359    constr:    0.0000
     atom:    8    charge:    3.2111    magn:    1.2733    constr:    0.0000
     atom:    9    charge:    3.2313    magn:    1.2510    constr:    0.0000
     atom:   10    charge:    3.2035    magn:    1.2386    constr:    0.0000
     atom:   11    charge:    3.2026    magn:    1.2358    constr:    0.0000
     atom:   12    charge:    3.2318    magn:    1.2548    constr:    0.0000
     atom:   13    charge:    3.2313    magn:    1.2510    constr:    0.0000
     atom:   14    charge:    3.2048    magn:    1.2346    constr:    0.0000
     atom:   15    charge:    3.2026    magn:    1.2359    constr:    0.0000
     atom:   16    charge:    3.2285    magn:    1.2536    constr:    0.0000
     atom:   17    charge:    3.2315    magn:    1.2514    constr:    0.0000
     atom:   18    charge:    3.2049    magn:    1.2350    constr:    0.0000
     atom:   19    charge:    3.2007    magn:    1.2455    constr:    0.0000
     atom:   20    charge:    3.2286    magn:    1.2541    constr:    0.0000
     atom:   21    charge:    3.2313    magn:    1.2510    constr:    0.0000
     atom:   22    charge:    3.2049    magn:    1.2350    constr:    0.0000
     atom:   23    charge:    3.2026    magn:    1.2359    constr:    0.0000
     atom:   24    charge:    3.2286    magn:    1.2541    constr:    0.0000
     atom:   25    charge:    3.2250    magn:    1.2562    constr:    0.0000
     atom:   26    charge:    3.2049    magn:    1.2350    constr:    0.0000
     atom:   27    charge:    3.2045    magn:    1.2361    constr:    0.0000
     atom:   28    charge:    3.2286    magn:    1.2541    constr:    0.0000
     atom:   29    charge:    3.2250    magn:    1.2562    constr:    0.0000
     atom:   30    charge:    3.2048    magn:    1.2346    constr:    0.0000
     atom:   31    charge:    3.2045    magn:    1.2361    constr:    0.0000
     atom:   32    charge:    3.2285    magn:    1.2535    constr:    0.0000
     atom:   33    charge:    3.2246    magn:    1.2561    constr:    0.0000
     atom:   34    charge:    3.2049    magn:    1.2350    constr:    0.0000
     atom:   35    charge:    3.2043    magn:    1.2359    constr:    0.0000
     atom:   36    charge:    3.2286    magn:    1.2541    constr:    0.0000
     atom:   37    charge:    2.0538    magn:    0.9658    constr:    0.0000

     total cpu time spent up to now is      551.3 secs

     total energy              =   -2917.14900109 Ry
     Harris-Foulkes estimate   =   -2916.95240155 Ry
     estimated scf accuracy    <       1.52738812 Ry

     total magnetization       =    76.59 Bohr mag/cell
     absolute magnetization    =    76.85 Bohr mag/cell

     iteration #  7     ecut=    44.10 Ry     beta=0.10
     Davidson diagonalization with overlap
     ethr =  4.63E-04,  avg # of iterations =  5.2

     negative rho (up, down):  3.015E-03 3.556E-03
 
     Adding external electric field

     Computed dipole along edir(3) : 
        Dipole               -0.4406 Ry au,         -1.1200 Debye
        Dipole field         -0.0005 Ry au
 
        Potential amp.        0.0372 Ry
        Total length         34.6232 bohr
 
 
     Adding external electric field

     Computed dipole along edir(3) : 
        Dipole               -0.4406 Ry au,         -1.1200 Debye
        Dipole field         -0.0005 Ry au
 
        Potential amp.        0.0372 Ry
        Total length         34.6232 bohr
 
 
     Magnetic moment per site:
     atom:    1    charge:    3.2251    magn:    1.2270    constr:    0.0000
     atom:    2    charge:    3.2017    magn:    1.2002    constr:    0.0000
     atom:    3    charge:    3.2027    magn:    1.2143    constr:    0.0000
     atom:    4    charge:    3.2119    magn:    1.2463    constr:    0.0000
     atom:    5    charge:    3.2250    magn:    1.2264    constr:    0.0000
     atom:    6    charge:    3.2017    magn:    1.2002    constr:    0.0000
     atom:    7    charge:    3.2012    magn:    1.2057    constr:    0.0000
     atom:    8    charge:    3.2119    magn:    1.2463    constr:    0.0000
     atom:    9    charge:    3.2250    magn:    1.2265    constr:    0.0000
     atom:   10    charge:    3.2012    magn:    1.2096    constr:    0.0000
     atom:   11    charge:    3.2012    magn:    1.2057    constr:    0.0000
     atom:   12    charge:    3.2249    magn:    1.2326    constr:    0.0000
     atom:   13    charge:    3.2250    magn:    1.2264    constr:    0.0000
     atom:   14    charge:    3.2012    magn:    1.2060    constr:    0.0000
     atom:   15    charge:    3.2012    magn:    1.2057    constr:    0.0000
     atom:   16    charge:    3.2248    magn:    1.2271    constr:    0.0000
     atom:   17    charge:    3.2251    magn:    1.2270    constr:    0.0000
     atom:   18    charge:    3.2018    magn:    1.2061    constr:    0.0000
     atom:   19    charge:    3.2027    magn:    1.2143    constr:    0.0000
     atom:   20    charge:    3.2258    magn:    1.2271    constr:    0.0000
     atom:   21    charge:    3.2250    magn:    1.2264    constr:    0.0000
     atom:   22    charge:    3.2018    magn:    1.2061    constr:    0.0000
     atom:   23    charge:    3.2012    magn:    1.2057    constr:    0.0000
     atom:   24    charge:    3.2258    magn:    1.2271    constr:    0.0000
     atom:   25    charge:    3.2264    magn:    1.2253    constr:    0.0000
     atom:   26    charge:    3.2018    magn:    1.2061    constr:    0.0000
     atom:   27    charge:    3.2006    magn:    1.2081    constr:    0.0000
     atom:   28    charge:    3.2258    magn:    1.2271    constr:    0.0000
     atom:   29    charge:    3.2264    magn:    1.2253    constr:    0.0000
     atom:   30    charge:    3.2012    magn:    1.2060    constr:    0.0000
     atom:   31    charge:    3.2005    magn:    1.2081    constr:    0.0000
     atom:   32    charge:    3.2248    magn:    1.2271    constr:    0.0000
     atom:   33    charge:    3.2269    magn:    1.2243    constr:    0.0000
     atom:   34    charge:    3.2018    magn:    1.2061    constr:    0.0000
     atom:   35    charge:    3.2010    magn:    1.2072    constr:    0.0000
     atom:   36    charge:    3.2258    magn:    1.2271    constr:    0.0000
     atom:   37    charge:    2.0575    magn:    0.9000    constr:    0.0000

     total cpu time spent up to now is      639.0 secs

     total energy              =   -2917.33603042 Ry
     Harris-Foulkes estimate   =   -2917.20747975 Ry
     estimated scf accuracy    <       1.41501340 Ry

     total magnetization       =    75.27 Bohr mag/cell
     absolute magnetization    =    75.71 Bohr mag/cell

     iteration #  8     ecut=    44.10 Ry     beta=0.10
     Davidson diagonalization with overlap
     ethr =  4.29E-04,  avg # of iterations =  2.8

     negative rho (up, down):  3.667E-03 4.218E-03
 
     Adding external electric field

     Computed dipole along edir(3) : 
        Dipole               -0.3704 Ry au,         -0.9415 Debye
        Dipole field         -0.0005 Ry au
 
        Potential amp.        0.0313 Ry
        Total length         34.6232 bohr
 
 
     Adding external electric field

     Computed dipole along edir(3) : 
        Dipole               -0.3704 Ry au,         -0.9415 Debye
        Dipole field         -0.0005 Ry au
 
        Potential amp.        0.0313 Ry
        Total length         34.6232 bohr
 
 
     Magnetic moment per site:
     atom:    1    charge:    3.2204    magn:    1.1728    constr:    0.0000
     atom:    2    charge:    3.1989    magn:    1.1392    constr:    0.0000
     atom:    3    charge:    3.2011    magn:    1.1574    constr:    0.0000
     atom:    4    charge:    3.2050    magn:    1.1991    constr:    0.0000
     atom:    5    charge:    3.2224    magn:    1.1702    constr:    0.0000
     atom:    6    charge:    3.1989    magn:    1.1392    constr:    0.0000
     atom:    7    charge:    3.1983    magn:    1.1470    constr:    0.0000
     atom:    8    charge:    3.2050    magn:    1.1991    constr:    0.0000
     atom:    9    charge:    3.2224    magn:    1.1702    constr:    0.0000
     atom:   10    charge:    3.1990    magn:    1.1510    constr:    0.0000
     atom:   11    charge:    3.1983    magn:    1.1470    constr:    0.0000
     atom:   12    charge:    3.2175    magn:    1.1841    constr:    0.0000
     atom:   13    charge:    3.2224    magn:    1.1702    constr:    0.0000
     atom:   14    charge:    3.1956    magn:    1.1490    constr:    0.0000
     atom:   15    charge:    3.1983    magn:    1.1469    constr:    0.0000
     atom:   16    charge:    3.2266    magn:    1.1675    constr:    0.0000
     atom:   17    charge:    3.2204    magn:    1.1728    constr:    0.0000
     atom:   18    charge:    3.1948    magn:    1.1505    constr:    0.0000
     atom:   19    charge:    3.2011    magn:    1.1575    constr:    0.0000
     atom:   20    charge:    3.2229    magn:    1.1718    constr:    0.0000
     atom:   21    charge:    3.2224    magn:    1.1702    constr:    0.0000
     atom:   22    charge:    3.1948    magn:    1.1505    constr:    0.0000
     atom:   23    charge:    3.1983    magn:    1.1470    constr:    0.0000
     atom:   24    charge:    3.2229    magn:    1.1718    constr:    0.0000
     atom:   25    charge:    3.2220    magn:    1.1706    constr:    0.0000
     atom:   26    charge:    3.1948    magn:    1.1505    constr:    0.0000
     atom:   27    charge:    3.1983    magn:    1.1494    constr:    0.0000
     atom:   28    charge:    3.2229    magn:    1.1718    constr:    0.0000
     atom:   29    charge:    3.2220    magn:    1.1706    constr:    0.0000
     atom:   30    charge:    3.1957    magn:    1.1490    constr:    0.0000
     atom:   31    charge:    3.1983    magn:    1.1494    constr:    0.0000
     atom:   32    charge:    3.2266    magn:    1.1675    constr:    0.0000
     atom:   33    charge:    3.2214    magn:    1.1705    constr:    0.0000
     atom:   34    charge:    3.1948    magn:    1.1505    constr:    0.0000
     atom:   35    charge:    3.1983    magn:    1.1481    constr:    0.0000
     atom:   36    charge:    3.2229    magn:    1.1718    constr:    0.0000
     atom:   37    charge:    2.0583    magn:    0.7675    constr:    0.0000

     total cpu time spent up to now is      718.3 secs

     total energy              =   -2917.65096143 Ry
     Harris-Foulkes estimate   =   -2917.36993769 Ry
     estimated scf accuracy    <       0.56926724 Ry

     total magnetization       =    74.33 Bohr mag/cell
     absolute magnetization    =    74.95 Bohr mag/cell

     iteration #  9     ecut=    44.10 Ry     beta=0.10
     Davidson diagonalization with overlap
     ethr =  1.73E-04,  avg # of iterations =  6.8

     negative rho (up, down):  1.026E-02 7.378E-03
 
     Adding external electric field

     Computed dipole along edir(3) : 
        Dipole               -0.3115 Ry au,         -0.7919 Debye
        Dipole field         -0.0004 Ry au
 
        Potential amp.        0.0263 Ry
        Total length         34.6232 bohr
 
 
     Adding external electric field

     Computed dipole along edir(3) : 
        Dipole               -0.3115 Ry au,         -0.7919 Debye
        Dipole field         -0.0004 Ry au
 
        Potential amp.        0.0263 Ry
        Total length         34.6232 bohr
 
 
     Magnetic moment per site:
     atom:    1    charge:    3.2152    magn:    1.0624    constr:    0.0000
     atom:    2    charge:    3.1898    magn:    1.0206    constr:    0.0000
     atom:    3    charge:    3.1966    magn:    1.0454    constr:    0.0000
     atom:    4    charge:    3.2012    magn:    1.0976    constr:    0.0000
     atom:    5    charge:    3.2142    magn:    1.0617    constr:    0.0000
     atom:    6    charge:    3.1898    magn:    1.0206    constr:    0.0000
     atom:    7    charge:    3.1922    magn:    1.0306    constr:    0.0000
     atom:    8    charge:    3.2012    magn:    1.0976    constr:    0.0000
     atom:    9    charge:    3.2142    magn:    1.0617    constr:    0.0000
     atom:   10    charge:    3.1908    magn:    1.0378    constr:    0.0000
     atom:   11    charge:    3.1922    magn:    1.0306    constr:    0.0000
     atom:   12    charge:    3.2215    magn:    1.0722    constr:    0.0000
     atom:   13    charge:    3.2142    magn:    1.0617    constr:    0.0000
     atom:   14    charge:    3.1899    magn:    1.0323    constr:    0.0000
     atom:   15    charge:    3.1922    magn:    1.0306    constr:    0.0000
     atom:   16    charge:    3.2170    magn:    1.0598    constr:    0.0000
     atom:   17    charge:    3.2152    magn:    1.0623    constr:    0.0000
     atom:   18    charge:    3.1897    magn:    1.0341    constr:    0.0000
     atom:   19    charge:    3.1966    magn:    1.0454    constr:    0.0000
     atom:   20    charge:    3.2184    magn:    1.0610    constr:    0.0000
     atom:   21    charge:    3.2142    magn:    1.0617    constr:    0.0000
     atom:   22    charge:    3.1897    magn:    1.0341    constr:    0.0000
     atom:   23    charge:    3.1922    magn:    1.0306    constr:    0.0000
     atom:   24    charge:    3.2184    magn:    1.0610    constr:    0.0000
     atom:   25    charge:    3.2147    magn:    1.0612    constr:    0.0000
     atom:   26    charge:    3.1897    magn:    1.0341    constr:    0.0000
     atom:   27    charge:    3.1926    magn:    1.0341    constr:    0.0000
     atom:   28    charge:    3.2184    magn:    1.0610    constr:    0.0000
     atom:   29    charge:    3.2147    magn:    1.0612    constr:    0.0000
     atom:   30    charge:    3.1899    magn:    1.0324    constr:    0.0000
     atom:   31    charge:    3.1926    magn:    1.0341    constr:    0.0000
     atom:   32    charge:    3.2170    magn:    1.0597    constr:    0.0000
     atom:   33    charge:    3.2160    magn:    1.0592    constr:    0.0000
     atom:   34    charge:    3.1897    magn:    1.0341    constr:    0.0000
     atom:   35    charge:    3.1938    magn:    1.0302    constr:    0.0000
     atom:   36    charge:    3.2184    magn:    1.0610    constr:    0.0000
     atom:   37    charge:    2.0563    magn:    0.5010    constr:    0.0000

     total cpu time spent up to now is      813.7 secs

     total energy              =   -2918.01333557 Ry
     Harris-Foulkes estimate   =   -2917.68904276 Ry
     estimated scf accuracy    <       0.83916855 Ry

     total magnetization       =    72.66 Bohr mag/cell
     absolute magnetization    =    73.95 Bohr mag/cell

     iteration # 10     ecut=    44.10 Ry     beta=0.10
     Davidson diagonalization with overlap
     ethr =  1.73E-04,  avg # of iterations =  5.2

     negative rho (up, down):  1.049E-02 7.726E-03
 
     Adding external electric field

     Computed dipole along edir(3) : 
        Dipole               -0.3358 Ry au,         -0.8535 Debye
        Dipole field         -0.0004 Ry au
 
        Potential amp.        0.0283 Ry
        Total length         34.6232 bohr
 
 
     Adding external electric field

     Computed dipole along edir(3) : 
        Dipole               -0.3358 Ry au,         -0.8535 Debye
        Dipole field         -0.0004 Ry au
 
        Potential amp.        0.0283 Ry
        Total length         34.6232 bohr
 
 
     Magnetic moment per site:
     atom:    1    charge:    3.2144    magn:    1.0448    constr:    0.0000
     atom:    2    charge:    3.1916    magn:    0.9989    constr:    0.0000
     atom:    3    charge:    3.1972    magn:    1.0262    constr:    0.0000
     atom:    4    charge:    3.2031    magn:    1.0785    constr:    0.0000
     atom:    5    charge:    3.2149    magn:    1.0430    constr:    0.0000
     atom:    6    charge:    3.1916    magn:    0.9989    constr:    0.0000
     atom:    7    charge:    3.1929    magn:    1.0107    constr:    0.0000
     atom:    8    charge:    3.2031    magn:    1.0785    constr:    0.0000
     atom:    9    charge:    3.2149    magn:    1.0430    constr:    0.0000
     atom:   10    charge:    3.1926    magn:    1.0171    constr:    0.0000
     atom:   11    charge:    3.1929    magn:    1.0107    constr:    0.0000
     atom:   12    charge:    3.2186    magn:    1.0571    constr:    0.0000
     atom:   13    charge:    3.2149    magn:    1.0430    constr:    0.0000
     atom:   14    charge:    3.1925    magn:    1.0111    constr:    0.0000
     atom:   15    charge:    3.1929    magn:    1.0107    constr:    0.0000
     atom:   16    charge:    3.2175    magn:    1.0405    constr:    0.0000
     atom:   17    charge:    3.2144    magn:    1.0448    constr:    0.0000
     atom:   18    charge:    3.1925    magn:    1.0128    constr:    0.0000
     atom:   19    charge:    3.1972    magn:    1.0262    constr:    0.0000
     atom:   20    charge:    3.2183    magn:    1.0424    constr:    0.0000
     atom:   21    charge:    3.2149    magn:    1.0430    constr:    0.0000
     atom:   22    charge:    3.1925    magn:    1.0128    constr:    0.0000
     atom:   23    charge:    3.1929    magn:    1.0107    constr:    0.0000
     atom:   24    charge:    3.2183    magn:    1.0424    constr:    0.0000
     atom:   25    charge:    3.2145    magn:    1.0432    constr:    0.0000
     atom:   26    charge:    3.1925    magn:    1.0128    constr:    0.0000
     atom:   27    charge:    3.1930    magn:    1.0145    constr:    0.0000
     atom:   28    charge:    3.2183    magn:    1.0424    constr:    0.0000
     atom:   29    charge:    3.2145    magn:    1.0431    constr:    0.0000
     atom:   30    charge:    3.1925    magn:    1.0111    constr:    0.0000
     atom:   31    charge:    3.1930    magn:    1.0145    constr:    0.0000
     atom:   32    charge:    3.2175    magn:    1.0405    constr:    0.0000
     atom:   33    charge:    3.2143    magn:    1.0423    constr:    0.0000
     atom:   34    charge:    3.1925    magn:    1.0128    constr:    0.0000
     atom:   35    charge:    3.1932    magn:    1.0109    constr:    0.0000
     atom:   36    charge:    3.2183    magn:    1.0424    constr:    0.0000
     atom:   37    charge:    2.0516    magn:    0.4529    constr:    0.0000

     total cpu time spent up to now is      901.4 secs

     total energy              =   -2918.10539959 Ry
     Harris-Foulkes estimate   =   -2918.08328191 Ry
     estimated scf accuracy    <       0.70671362 Ry

     total magnetization       =    68.60 Bohr mag/cell
     absolute magnetization    =    71.96 Bohr mag/cell

     iteration # 11     ecut=    44.10 Ry     beta=0.10
     Davidson diagonalization with overlap
     ethr =  1.73E-04,  avg # of iterations =  1.0

     negative rho (up, down):  1.034E-02 7.938E-03
 
     Adding external electric field

     Computed dipole along edir(3) : 
        Dipole               -0.3757 Ry au,         -0.9549 Debye
        Dipole field         -0.0005 Ry au
 
        Potential amp.        0.0317 Ry
        Total length         34.6232 bohr
 
 
     Adding external electric field

     Computed dipole along edir(3) : 
        Dipole               -0.3757 Ry au,         -0.9549 Debye
        Dipole field         -0.0005 Ry au
 
        Potential amp.        0.0317 Ry
        Total length         34.6232 bohr
 
 
     Magnetic moment per site:
     atom:    1    charge:    3.2157    magn:    1.0310    constr:    0.0000
     atom:    2    charge:    3.1954    magn:    0.9811    constr:    0.0000
     atom:    3    charge:    3.1997    magn:    1.0107    constr:    0.0000
     atom:    4    charge:    3.2030    magn:    1.0651    constr:    0.0000
     atom:    5    charge:    3.2153    magn:    1.0297    constr:    0.0000
     atom:    6    charge:    3.1954    magn:    0.9811    constr:    0.0000
     atom:    7    charge:    3.1959    magn:    0.9948    constr:    0.0000
     atom:    8    charge:    3.2030    magn:    1.0651    constr:    0.0000
     atom:    9    charge:    3.2153    magn:    1.0297    constr:    0.0000
     atom:   10    charge:    3.1963    magn:    1.0004    constr:    0.0000
     atom:   11    charge:    3.1959    magn:    0.9948    constr:    0.0000
     atom:   12    charge:    3.2199    magn:    1.0435    constr:    0.0000
     atom:   13    charge:    3.2153    magn:    1.0297    constr:    0.0000
     atom:   14    charge:    3.1956    magn:    0.9952    constr:    0.0000
     atom:   15    charge:    3.1959    magn:    0.9948    constr:    0.0000
     atom:   16    charge:    3.2175    magn:    1.0266    constr:    0.0000
     atom:   17    charge:    3.2157    magn:    1.0310    constr:    0.0000
     atom:   18    charge:    3.1959    magn:    0.9967    constr:    0.0000
     atom:   19    charge:    3.1997    magn:    1.0107    constr:    0.0000
     atom:   20    charge:    3.2181    magn:    1.0288    constr:    0.0000
     atom:   21    charge:    3.2153    magn:    1.0297    constr:    0.0000
     atom:   22    charge:    3.1959    magn:    0.9967    constr:    0.0000
     atom:   23    charge:    3.1959    magn:    0.9948    constr:    0.0000
     atom:   24    charge:    3.2181    magn:    1.0288    constr:    0.0000
     atom:   25    charge:    3.2151    magn:    1.0297    constr:    0.0000
     atom:   26    charge:    3.1959    magn:    0.9967    constr:    0.0000
     atom:   27    charge:    3.1959    magn:    0.9986    constr:    0.0000
     atom:   28    charge:    3.2181    magn:    1.0288    constr:    0.0000
     atom:   29    charge:    3.2151    magn:    1.0297    constr:    0.0000
     atom:   30    charge:    3.1956    magn:    0.9952    constr:    0.0000
     atom:   31    charge:    3.1959    magn:    0.9986    constr:    0.0000
     atom:   32    charge:    3.2175    magn:    1.0266    constr:    0.0000
     atom:   33    charge:    3.2161    magn:    1.0280    constr:    0.0000
     atom:   34    charge:    3.1959    magn:    0.9967    constr:    0.0000
     atom:   35    charge:    3.1959    magn:    0.9947    constr:    0.0000
     atom:   36    charge:    3.2181    magn:    1.0288    constr:    0.0000
     atom:   37    charge:    2.0440    magn:    0.4125    constr:    0.0000

     total cpu time spent up to now is      975.1 secs

     total energy              =   -2918.11813471 Ry
     Harris-Foulkes estimate   =   -2918.11186491 Ry
     estimated scf accuracy    <       0.42384868 Ry

     total magnetization       =    67.81 Bohr mag/cell
     absolute magnetization    =    71.63 Bohr mag/cell

     iteration # 12     ecut=    44.10 Ry     beta=0.10
     Davidson diagonalization with overlap
     ethr =  1.28E-04,  avg # of iterations =  1.0

     negative rho (up, down):  9.879E-03 8.121E-03
 
     Adding external electric field

     Computed dipole along edir(3) : 
        Dipole               -0.4446 Ry au,         -1.1302 Debye
        Dipole field         -0.0005 Ry au
 
        Potential amp.        0.0375 Ry
        Total length         34.6232 bohr
 
 
     Adding external electric field

     Computed dipole along edir(3) : 
        Dipole               -0.4446 Ry au,         -1.1302 Debye
        Dipole field         -0.0005 Ry au
 
        Potential amp.        0.0375 Ry
        Total length         34.6232 bohr
 
 
     Magnetic moment per site:
     atom:    1    charge:    3.2168    magn:    1.0204    constr:    0.0000
     atom:    2    charge:    3.2005    magn:    0.9648    constr:    0.0000
     atom:    3    charge:    3.2053    magn:    0.9958    constr:    0.0000
     atom:    4    charge:    3.2045    magn:    1.0520    constr:    0.0000
     atom:    5    charge:    3.2175    magn:    1.0183    constr:    0.0000
     atom:    6    charge:    3.2005    magn:    0.9648    constr:    0.0000
     atom:    7    charge:    3.2014    magn:    0.9804    constr:    0.0000
     atom:    8    charge:    3.2045    magn:    1.0520    constr:    0.0000
     atom:    9    charge:    3.2175    magn:    1.0183    constr:    0.0000
     atom:   10    charge:    3.2018    magn:    0.9849    constr:    0.0000
     atom:   11    charge:    3.2014    magn:    0.9804    constr:    0.0000
     atom:   12    charge:    3.2189    magn:    1.0347    constr:    0.0000
     atom:   13    charge:    3.2175    magn:    1.0183    constr:    0.0000
     atom:   14    charge:    3.2019    magn:    0.9798    constr:    0.0000
     atom:   15    charge:    3.2014    magn:    0.9804    constr:    0.0000
     atom:   16    charge:    3.2156    magn:    1.0166    constr:    0.0000
     atom:   17    charge:    3.2168    magn:    1.0204    constr:    0.0000
     atom:   18    charge:    3.2014    magn:    0.9818    constr:    0.0000
     atom:   19    charge:    3.2053    magn:    0.9958    constr:    0.0000
     atom:   20    charge:    3.2177    magn:    1.0178    constr:    0.0000
     atom:   21    charge:    3.2175    magn:    1.0183    constr:    0.0000
     atom:   22    charge:    3.2014    magn:    0.9818    constr:    0.0000
     atom:   23    charge:    3.2014    magn:    0.9804    constr:    0.0000
     atom:   24    charge:    3.2177    magn:    1.0178    constr:    0.0000
     atom:   25    charge:    3.2167    magn:    1.0185    constr:    0.0000
     atom:   26    charge:    3.2014    magn:    0.9818    constr:    0.0000
     atom:   27    charge:    3.2022    magn:    0.9832    constr:    0.0000
     atom:   28    charge:    3.2177    magn:    1.0178    constr:    0.0000
     atom:   29    charge:    3.2167    magn:    1.0185    constr:    0.0000
     atom:   30    charge:    3.2019    magn:    0.9799    constr:    0.0000
     atom:   31    charge:    3.2022    magn:    0.9832    constr:    0.0000
     atom:   32    charge:    3.2156    magn:    1.0166    constr:    0.0000
     atom:   33    charge:    3.2157    magn:    1.0186    constr:    0.0000
     atom:   34    charge:    3.2014    magn:    0.9818    constr:    0.0000
     atom:   35    charge:    3.2028    magn:    0.9782    constr:    0.0000
     atom:   36    charge:    3.2177    magn:    1.0178    constr:    0.0000
     atom:   37    charge:    2.0320    magn:    0.3672    constr:    0.0000

     total cpu time spent up to now is     1048.9 secs

     total energy              =   -2918.11929161 Ry
     Harris-Foulkes estimate   =   -2918.12243789 Ry
     estimated scf accuracy    <       0.16183055 Ry

     total magnetization       =    67.20 Bohr mag/cell
     absolute magnetization    =    71.46 Bohr mag/cell

     iteration # 13     ecut=    44.10 Ry     beta=0.10
     Davidson diagonalization with overlap
     ethr =  4.90E-05,  avg # of iterations =  4.1

     negative rho (up, down):  9.784E-03 8.402E-03
 
     Adding external electric field

     Computed dipole along edir(3) : 
        Dipole               -0.4507 Ry au,         -1.1456 Debye
        Dipole field         -0.0005 Ry au
 
        Potential amp.        0.0380 Ry
        Total length         34.6232 bohr
 
 
     Adding external electric field

     Computed dipole along edir(3) : 
        Dipole               -0.4507 Ry au,         -1.1456 Debye
        Dipole field         -0.0005 Ry au
 
        Potential amp.        0.0380 Ry
        Total length         34.6232 bohr
 
 
     Magnetic moment per site:
     atom:    1    charge:    3.2175    magn:    1.0083    constr:    0.0000
     atom:    2    charge:    3.2013    magn:    0.9501    constr:    0.0000
     atom:    3    charge:    3.2048    magn:    0.9835    constr:    0.0000
     atom:    4    charge:    3.2039    magn:    1.0407    constr:    0.0000
     atom:    5    charge:    3.2172    magn:    1.0071    constr:    0.0000
     atom:    6    charge:    3.2013    magn:    0.9501    constr:    0.0000
     atom:    7    charge:    3.2017    magn:    0.9674    constr:    0.0000
     atom:    8    charge:    3.2039    magn:    1.0407    constr:    0.0000
     atom:    9    charge:    3.2172    magn:    1.0071    constr:    0.0000
     atom:   10    charge:    3.2024    magn:    0.9710    constr:    0.0000
     atom:   11    charge:    3.2017    magn:    0.9674    constr:    0.0000
     atom:   12    charge:    3.2187    magn:    1.0241    constr:    0.0000
     atom:   13    charge:    3.2172    magn:    1.0071    constr:    0.0000
     atom:   14    charge:    3.2025    magn:    0.9662    constr:    0.0000
     atom:   15    charge:    3.2017    magn:    0.9674    constr:    0.0000
     atom:   16    charge:    3.2173    magn:    1.0035    constr:    0.0000
     atom:   17    charge:    3.2175    magn:    1.0084    constr:    0.0000
     atom:   18    charge:    3.2024    magn:    0.9677    constr:    0.0000
     atom:   19    charge:    3.2048    magn:    0.9835    constr:    0.0000
     atom:   20    charge:    3.2172    magn:    1.0065    constr:    0.0000
     atom:   21    charge:    3.2172    magn:    1.0071    constr:    0.0000
     atom:   22    charge:    3.2024    magn:    0.9677    constr:    0.0000
     atom:   23    charge:    3.2017    magn:    0.9674    constr:    0.0000
     atom:   24    charge:    3.2172    magn:    1.0065    constr:    0.0000
     atom:   25    charge:    3.2163    magn:    1.0074    constr:    0.0000
     atom:   26    charge:    3.2024    magn:    0.9677    constr:    0.0000
     atom:   27    charge:    3.2021    magn:    0.9703    constr:    0.0000
     atom:   28    charge:    3.2172    magn:    1.0065    constr:    0.0000
     atom:   29    charge:    3.2163    magn:    1.0073    constr:    0.0000
     atom:   30    charge:    3.2025    magn:    0.9662    constr:    0.0000
     atom:   31    charge:    3.2021    magn:    0.9703    constr:    0.0000
     atom:   32    charge:    3.2173    magn:    1.0035    constr:    0.0000
     atom:   33    charge:    3.2172    magn:    1.0058    constr:    0.0000
     atom:   34    charge:    3.2024    magn:    0.9677    constr:    0.0000
     atom:   35    charge:    3.2020    magn:    0.9654    constr:    0.0000
     atom:   36    charge:    3.2172    magn:    1.0065    constr:    0.0000
     atom:   37    charge:    2.0303    magn:    0.3294    constr:    0.0000

     total cpu time spent up to now is     1132.9 secs

     total energy              =   -2918.13730447 Ry
     Harris-Foulkes estimate   =   -2918.13015903 Ry
     estimated scf accuracy    <       0.06195313 Ry

     total magnetization       =    66.47 Bohr mag/cell
     absolute magnetization    =    71.18 Bohr mag/cell

     iteration # 14     ecut=    44.10 Ry     beta=0.10
     Davidson diagonalization with overlap
     c_bands:  1 eigenvalues not converged
     ethr =  1.88E-05,  avg # of iterations =  7.8

     negative rho (up, down):  9.241E-03 8.506E-03
 
     Adding external electric field

     Computed dipole along edir(3) : 
        Dipole               -0.4602 Ry au,         -1.1696 Debye
        Dipole field         -0.0006 Ry au
 
        Potential amp.        0.0388 Ry
        Total length         34.6232 bohr
 
 
     Adding external electric field

     Computed dipole along edir(3) : 
        Dipole               -0.4602 Ry au,         -1.1696 Debye
        Dipole field         -0.0006 Ry au
 
        Potential amp.        0.0388 Ry
        Total length         34.6232 bohr
 
 
     Magnetic moment per site:
     atom:    1    charge:    3.2174    magn:    1.0038    constr:    0.0000
     atom:    2    charge:    3.2024    magn:    0.9419    constr:    0.0000
     atom:    3    charge:    3.2048    magn:    0.9773    constr:    0.0000
     atom:    4    charge:    3.2032    magn:    1.0357    constr:    0.0000
     atom:    5    charge:    3.2179    magn:    1.0020    constr:    0.0000
     atom:    6    charge:    3.2024    magn:    0.9419    constr:    0.0000
     atom:    7    charge:    3.2019    magn:    0.9611    constr:    0.0000
     atom:    8    charge:    3.2032    magn:    1.0357    constr:    0.0000
     atom:    9    charge:    3.2179    magn:    1.0020    constr:    0.0000
     atom:   10    charge:    3.2035    magn:    0.9631    constr:    0.0000
     atom:   11    charge:    3.2019    magn:    0.9611    constr:    0.0000
     atom:   12    charge:    3.2192    magn:    1.0196    constr:    0.0000
     atom:   13    charge:    3.2179    magn:    1.0020    constr:    0.0000
     atom:   14    charge:    3.2028    magn:    0.9591    constr:    0.0000
     atom:   15    charge:    3.2019    magn:    0.9611    constr:    0.0000
     atom:   16    charge:    3.2171    magn:    0.9989    constr:    0.0000
     atom:   17    charge:    3.2174    magn:    1.0038    constr:    0.0000
     atom:   18    charge:    3.2029    magn:    0.9604    constr:    0.0000
     atom:   19    charge:    3.2048    magn:    0.9773    constr:    0.0000
     atom:   20    charge:    3.2185    magn:    1.0007    constr:    0.0000
     atom:   21    charge:    3.2179    magn:    1.0020    constr:    0.0000
     atom:   22    charge:    3.2029    magn:    0.9604    constr:    0.0000
     atom:   23    charge:    3.2019    magn:    0.9611    constr:    0.0000
     atom:   24    charge:    3.2185    magn:    1.0007    constr:    0.0000
     atom:   25    charge:    3.2174    magn:    1.0018    constr:    0.0000
     atom:   26    charge:    3.2029    magn:    0.9604    constr:    0.0000
     atom:   27    charge:    3.2023    magn:    0.9635    constr:    0.0000
     atom:   28    charge:    3.2185    magn:    1.0007    constr:    0.0000
     atom:   29    charge:    3.2174    magn:    1.0018    constr:    0.0000
     atom:   30    charge:    3.2028    magn:    0.9591    constr:    0.0000
     atom:   31    charge:    3.2023    magn:    0.9635    constr:    0.0000
     atom:   32    charge:    3.2171    magn:    0.9989    constr:    0.0000
     atom:   33    charge:    3.2173    magn:    1.0012    constr:    0.0000
     atom:   34    charge:    3.2029    magn:    0.9604    constr:    0.0000
     atom:   35    charge:    3.2023    magn:    0.9584    constr:    0.0000
     atom:   36    charge:    3.2185    magn:    1.0007    constr:    0.0000
     atom:   37    charge:    2.0295    magn:    0.3069    constr:    0.0000

     total cpu time spent up to now is     1227.3 secs

     total energy              =   -2918.14368015 Ry
     Harris-Foulkes estimate   =   -2918.14037337 Ry
     estimated scf accuracy    <       0.01772912 Ry

     total magnetization       =    65.88 Bohr mag/cell
     absolute magnetization    =    70.96 Bohr mag/cell

     iteration # 15     ecut=    44.10 Ry     beta=0.10
     Davidson diagonalization with overlap
     ethr =  5.37E-06,  avg # of iterations =  5.5

     negative rho (up, down):  8.575E-03 8.583E-03
 
     Adding external electric field

     Computed dipole along edir(3) : 
        Dipole               -0.4441 Ry au,         -1.1287 Debye
        Dipole field         -0.0005 Ry au
 
        Potential amp.        0.0375 Ry
        Total length         34.6232 bohr
 
 
     Adding external electric field

     Computed dipole along edir(3) : 
        Dipole               -0.4441 Ry au,         -1.1287 Debye
        Dipole field         -0.0005 Ry au
 
        Potential amp.        0.0375 Ry
        Total length         34.6232 bohr
 
 
     Magnetic moment per site:
     atom:    1    charge:    3.2181    magn:    1.0011    constr:    0.0000
     atom:    2    charge:    3.2023    magn:    0.9372    constr:    0.0000
     atom:    3    charge:    3.2052    magn:    0.9732    constr:    0.0000
     atom:    4    charge:    3.2034    magn:    1.0322    constr:    0.0000
     atom:    5    charge:    3.2182    magn:    0.9996    constr:    0.0000
     atom:    6    charge:    3.2023    magn:    0.9372    constr:    0.0000
     atom:    7    charge:    3.2024    magn:    0.9572    constr:    0.0000
     atom:    8    charge:    3.2034    magn:    1.0322    constr:    0.0000
     atom:    9    charge:    3.2182    magn:    0.9996    constr:    0.0000
     atom:   10    charge:    3.2032    magn:    0.9586    constr:    0.0000
     atom:   11    charge:    3.2024    magn:    0.9572    constr:    0.0000
     atom:   12    charge:    3.2191    magn:    1.0181    constr:    0.0000
     atom:   13    charge:    3.2182    magn:    0.9997    constr:    0.0000
     atom:   14    charge:    3.2033    magn:    0.9545    constr:    0.0000
     atom:   15    charge:    3.2024    magn:    0.9572    constr:    0.0000
     atom:   16    charge:    3.2178    magn:    0.9960    constr:    0.0000
     atom:   17    charge:    3.2180    magn:    1.0012    constr:    0.0000
     atom:   18    charge:    3.2032    magn:    0.9557    constr:    0.0000
     atom:   19    charge:    3.2051    magn:    0.9733    constr:    0.0000
     atom:   20    charge:    3.2180    magn:    0.9988    constr:    0.0000
     atom:   21    charge:    3.2182    magn:    0.9997    constr:    0.0000
     atom:   22    charge:    3.2032    magn:    0.9557    constr:    0.0000
     atom:   23    charge:    3.2024    magn:    0.9572    constr:    0.0000
     atom:   24    charge:    3.2180    magn:    0.9988    constr:    0.0000
     atom:   25    charge:    3.2177    magn:    0.9993    constr:    0.0000
     atom:   26    charge:    3.2032    magn:    0.9556    constr:    0.0000
     atom:   27    charge:    3.2033    magn:    0.9587    constr:    0.0000
     atom:   28    charge:    3.2181    magn:    0.9988    constr:    0.0000
     atom:   29    charge:    3.2177    magn:    0.9993    constr:    0.0000
     atom:   30    charge:    3.2033    magn:    0.9544    constr:    0.0000
     atom:   31    charge:    3.2033    magn:    0.9587    constr:    0.0000
     atom:   32    charge:    3.2178    magn:    0.9960    constr:    0.0000
     atom:   33    charge:    3.2179    magn:    0.9986    constr:    0.0000
     atom:   34    charge:    3.2032    magn:    0.9556    constr:    0.0000
     atom:   35    charge:    3.2032    magn:    0.9535    constr:    0.0000
     atom:   36    charge:    3.2181    magn:    0.9988    constr:    0.0000
     atom:   37    charge:    2.0283    magn:    0.2896    constr:    0.0000

     total cpu time spent up to now is     1316.3 secs

     total energy              =   -2918.14666515 Ry
     Harris-Foulkes estimate   =   -2918.14494214 Ry
     estimated scf accuracy    <       0.01703052 Ry

     total magnetization       =    65.60 Bohr mag/cell
     absolute magnetization    =    70.90 Bohr mag/cell

     iteration # 16     ecut=    44.10 Ry     beta=0.10
     Davidson diagonalization with overlap
     ethr =  5.16E-06,  avg # of iterations =  1.0

     negative rho (up, down):  7.986E-03 8.630E-03
 
     Adding external electric field

     Computed dipole along edir(3) : 
        Dipole               -0.4778 Ry au,         -1.2143 Debye
        Dipole field         -0.0006 Ry au
 
        Potential amp.        0.0403 Ry
        Total length         34.6232 bohr
 
 
     Adding external electric field

     Computed dipole along edir(3) : 
        Dipole               -0.4778 Ry au,         -1.2143 Debye
        Dipole field         -0.0006 Ry au
 
        Potential amp.        0.0403 Ry
        Total length         34.6232 bohr
 
 
     Magnetic moment per site:
     atom:    1    charge:    3.2181    magn:    1.0008    constr:    0.0000
     atom:    2    charge:    3.2023    magn:    0.9366    constr:    0.0000
     atom:    3    charge:    3.2052    magn:    0.9728    constr:    0.0000
     atom:    4    charge:    3.2037    magn:    1.0316    constr:    0.0000
     atom:    5    charge:    3.2183    magn:    0.9994    constr:    0.0000
     atom:    6    charge:    3.2023    magn:    0.9366    constr:    0.0000
     atom:    7    charge:    3.2025    magn:    0.9567    constr:    0.0000
     atom:    8    charge:    3.2037    magn:    1.0316    constr:    0.0000
     atom:    9    charge:    3.2183    magn:    0.9994    constr:    0.0000
     atom:   10    charge:    3.2033    magn:    0.9580    constr:    0.0000
     atom:   11    charge:    3.2025    magn:    0.9567    constr:    0.0000
     atom:   12    charge:    3.2194    magn:    1.0177    constr:    0.0000
     atom:   13    charge:    3.2183    magn:    0.9994    constr:    0.0000
     atom:   14    charge:    3.2033    magn:    0.9540    constr:    0.0000
     atom:   15    charge:    3.2025    magn:    0.9567    constr:    0.0000
     atom:   16    charge:    3.2181    magn:    0.9954    constr:    0.0000
     atom:   17    charge:    3.2181    magn:    1.0008    constr:    0.0000
     atom:   18    charge:    3.2031    magn:    0.9552    constr:    0.0000
     atom:   19    charge:    3.2052    magn:    0.9728    constr:    0.0000
     atom:   20    charge:    3.2185    magn:    0.9982    constr:    0.0000
     atom:   21    charge:    3.2183    magn:    0.9994    constr:    0.0000
     atom:   22    charge:    3.2031    magn:    0.9552    constr:    0.0000
     atom:   23    charge:    3.2025    magn:    0.9567    constr:    0.0000
     atom:   24    charge:    3.2185    magn:    0.9982    constr:    0.0000
     atom:   25    charge:    3.2176    magn:    0.9992    constr:    0.0000
     atom:   26    charge:    3.2031    magn:    0.9552    constr:    0.0000
     atom:   27    charge:    3.2032    magn:    0.9583    constr:    0.0000
     atom:   28    charge:    3.2184    magn:    0.9982    constr:    0.0000
     atom:   29    charge:    3.2176    magn:    0.9992    constr:    0.0000
     atom:   30    charge:    3.2033    magn:    0.9540    constr:    0.0000
     atom:   31    charge:    3.2032    magn:    0.9583    constr:    0.0000
     atom:   32    charge:    3.2181    magn:    0.9954    constr:    0.0000
     atom:   33    charge:    3.2179    magn:    0.9983    constr:    0.0000
     atom:   34    charge:    3.2031    magn:    0.9552    constr:    0.0000
     atom:   35    charge:    3.2031    magn:    0.9530    constr:    0.0000
     atom:   36    charge:    3.2184    magn:    0.9982    constr:    0.0000
     atom:   37    charge:    2.0279    magn:    0.2877    constr:    0.0000

     total cpu time spent up to now is     1390.0 secs

     total energy              =   -2918.14753778 Ry
     Harris-Foulkes estimate   =   -2918.14755428 Ry
     estimated scf accuracy    <       0.02333190 Ry

     total magnetization       =    65.38 Bohr mag/cell
     absolute magnetization    =    70.85 Bohr mag/cell

     iteration # 17     ecut=    44.10 Ry     beta=0.10
     Davidson diagonalization with overlap
     ethr =  5.16E-06,  avg # of iterations =  1.0

     negative rho (up, down):  7.341E-03 8.743E-03
 
     Adding external electric field

     Computed dipole along edir(3) : 
        Dipole               -0.4564 Ry au,         -1.1600 Debye
        Dipole field         -0.0006 Ry au
 
        Potential amp.        0.0385 Ry
        Total length         34.6232 bohr
 
 
     Adding external electric field

     Computed dipole along edir(3) : 
        Dipole               -0.4564 Ry au,         -1.1600 Debye
        Dipole field         -0.0006 Ry au
 
        Potential amp.        0.0385 Ry
        Total length         34.6232 bohr
 
 
     Magnetic moment per site:
     atom:    1    charge:    3.2186    magn:    1.0005    constr:    0.0000
     atom:    2    charge:    3.2023    magn:    0.9338    constr:    0.0000
     atom:    3    charge:    3.2050    magn:    0.9711    constr:    0.0000
     atom:    4    charge:    3.2039    magn:    1.0300    constr:    0.0000
     atom:    5    charge:    3.2187    magn:    0.9992    constr:    0.0000
     atom:    6    charge:    3.2023    magn:    0.9338    constr:    0.0000
     atom:    7    charge:    3.2025    magn:    0.9551    constr:    0.0000
     atom:    8    charge:    3.2039    magn:    1.0300    constr:    0.0000
     atom:    9    charge:    3.2187    magn:    0.9992    constr:    0.0000
     atom:   10    charge:    3.2033    magn:    0.9552    constr:    0.0000
     atom:   11    charge:    3.2025    magn:    0.9551    constr:    0.0000
     atom:   12    charge:    3.2196    magn:    1.0181    constr:    0.0000
     atom:   13    charge:    3.2187    magn:    0.9991    constr:    0.0000
     atom:   14    charge:    3.2030    magn:    0.9517    constr:    0.0000
     atom:   15    charge:    3.2025    magn:    0.9551    constr:    0.0000
     atom:   16    charge:    3.2184    magn:    0.9952    constr:    0.0000
     atom:   17    charge:    3.2187    magn:    1.0005    constr:    0.0000
     atom:   18    charge:    3.2029    magn:    0.9526    constr:    0.0000
     atom:   19    charge:    3.2051    magn:    0.9711    constr:    0.0000
     atom:   20    charge:    3.2189    magn:    0.9979    constr:    0.0000
     atom:   21    charge:    3.2187    magn:    0.9991    constr:    0.0000
     atom:   22    charge:    3.2029    magn:    0.9526    constr:    0.0000
     atom:   23    charge:    3.2025    magn:    0.9551    constr:    0.0000
     atom:   24    charge:    3.2189    magn:    0.9979    constr:    0.0000
     atom:   25    charge:    3.2179    magn:    0.9988    constr:    0.0000
     atom:   26    charge:    3.2028    magn:    0.9527    constr:    0.0000
     atom:   27    charge:    3.2027    magn:    0.9564    constr:    0.0000
     atom:   28    charge:    3.2188    magn:    0.9979    constr:    0.0000
     atom:   29    charge:    3.2179    magn:    0.9988    constr:    0.0000
     atom:   30    charge:    3.2030    magn:    0.9517    constr:    0.0000
     atom:   31    charge:    3.2027    magn:    0.9564    constr:    0.0000
     atom:   32    charge:    3.2184    magn:    0.9952    constr:    0.0000
     atom:   33    charge:    3.2184    magn:    0.9979    constr:    0.0000
     atom:   34    charge:    3.2028    magn:    0.9527    constr:    0.0000
     atom:   35    charge:    3.2028    magn:    0.9509    constr:    0.0000
     atom:   36    charge:    3.2188    magn:    0.9980    constr:    0.0000
     atom:   37    charge:    2.0273    magn:    0.2754    constr:    0.0000

     total cpu time spent up to now is     1464.0 secs

     total energy              =   -2918.14928219 Ry
     Harris-Foulkes estimate   =   -2918.14819779 Ry
     estimated scf accuracy    <       0.01514448 Ry

     total magnetization       =    65.37 Bohr mag/cell
     absolute magnetization    =    70.87 Bohr mag/cell

     iteration # 18     ecut=    44.10 Ry     beta=0.10
     Davidson diagonalization with overlap
     ethr =  4.59E-06,  avg # of iterations =  1.0

     negative rho (up, down):  6.762E-03 8.909E-03
 
     Adding external electric field

     Computed dipole along edir(3) : 
        Dipole               -0.4580 Ry au,         -1.1642 Debye
        Dipole field         -0.0006 Ry au
 
        Potential amp.        0.0386 Ry
        Total length         34.6232 bohr
 
 
     Adding external electric field

     Computed dipole along edir(3) : 
        Dipole               -0.4580 Ry au,         -1.1642 Debye
        Dipole field         -0.0006 Ry au
 
        Potential amp.        0.0386 Ry
        Total length         34.6232 bohr
 
 
     Magnetic moment per site:
     atom:    1    charge:    3.2187    magn:    1.0001    constr:    0.0000
     atom:    2    charge:    3.2017    magn:    0.9295    constr:    0.0000
     atom:    3    charge:    3.2044    magn:    0.9684    constr:    0.0000
     atom:    4    charge:    3.2037    magn:    1.0277    constr:    0.0000
     atom:    5    charge:    3.2189    magn:    0.9988    constr:    0.0000
     atom:    6    charge:    3.2017    magn:    0.9295    constr:    0.0000
     atom:    7    charge:    3.2020    magn:    0.9526    constr:    0.0000
     atom:    8    charge:    3.2037    magn:    1.0277    constr:    0.0000
     atom:    9    charge:    3.2189    magn:    0.9988    constr:    0.0000
     atom:   10    charge:    3.2025    magn:    0.9510    constr:    0.0000
     atom:   11    charge:    3.2020    magn:    0.9526    constr:    0.0000
     atom:   12    charge:    3.2198    magn:    1.0185    constr:    0.0000
     atom:   13    charge:    3.2188    magn:    0.9988    constr:    0.0000
     atom:   14    charge:    3.2025    magn:    0.9480    constr:    0.0000
     atom:   15    charge:    3.2020    magn:    0.9526    constr:    0.0000
     atom:   16    charge:    3.2192    magn:    0.9941    constr:    0.0000
     atom:   17    charge:    3.2187    magn:    1.0001    constr:    0.0000
[...]
    -1.3218  -1.3212  -1.2856  -1.2542  -1.2450  -1.2289  -1.1911  -1.1612
    -1.1549  -1.1355  -1.1284  -1.1257  -1.1078  -1.1056  -1.0268  -1.0237
    -1.0146  -1.0015  -0.9869  -0.9554  -0.9395  -0.9270  -0.9203  -0.9140
    -0.8994  -0.8594  -0.8507  -0.8448  -0.8366  -0.8051  -0.7912  -0.7881
    -0.7638  -0.7434  -0.7256  -0.7152  -0.6957  -0.6830  -0.6622  -0.6574
    -0.6269  -0.6135  -0.5780  -0.5636  -0.5577  -0.5108  -0.4985  -0.4702
    -0.4682  -0.4482  -0.4343  -0.3729  -0.3108  -0.3072  -0.3000  -0.1571
    -0.1537   0.0273   0.4379   0.5560   0.5934   0.6417   0.6679   0.8186
     0.9522   1.0011   1.4752   1.5592   1.5890   1.8291   1.9104   1.9834
     2.5124   2.6381   2.6633   2.7449   2.9682   3.0783   3.1482   3.3012
     3.3658   3.3696   3.5883   3.7649   4.0118   4.0803   4.1238   4.4692
     4.5036   4.8868   4.9751   5.1497   5.1556   5.3343   5.4652   5.6749
     5.6789   5.6944   5.7596   6.0660   6.2358   6.3156   6.4568   6.5074
     6.5467   6.5586   6.6021   6.6029   6.6970   6.7312   6.7918   7.0035
     7.0087   7.0321   7.0894   7.4617   7.5128   7.5818   7.7593   7.8521
     7.8542   7.8991   7.9041   8.1497   8.2318   8.2858   8.4123   8.4457
     8.6267

 ------ SPIN DOWN ----------


          k = 0.0000 0.0000 0.0000 ( 50983 PWs)   bands (ev):

   -17.3073  -7.4267  -6.1398  -6.1118  -5.0320  -4.9760  -4.6614  -4.3041
    -4.0857  -4.0692  -4.0645  -4.0112  -3.8631  -3.6803  -3.6042  -3.4998
    -3.2721  -3.1589  -3.1136  -3.0218  -2.9195  -2.7716  -2.6246  -2.6170
    -2.6162  -2.5901  -2.5180  -2.3606  -2.3448  -2.3203  -2.3120  -2.2897
    -2.2163  -2.2094  -2.2025  -2.1864  -2.1210  -2.0526  -2.0524  -2.0182
    -2.0048  -2.0032  -1.9977  -1.9553  -1.9523  -1.8331  -1.8012  -1.7305
    -1.7211  -1.7067  -1.6600  -1.6244  -1.5979  -1.5967  -1.5592  -1.5359
    -1.4680  -1.4388  -1.3892  -1.3527  -1.3389  -1.2958  -1.1934  -1.1448
    -1.0776  -1.0553  -1.0534  -1.0258  -1.0253  -1.0227  -0.9939  -0.9896
    -0.9721  -0.9446  -0.9411  -0.8879  -0.8835  -0.7183  -0.7062  -0.7001
    -0.6896  -0.6875  -0.6804  -0.6713  -0.6678  -0.5960  -0.5850  -0.5808
    -0.5777  -0.5234  -0.5182  -0.4633  -0.4604  -0.4193  -0.3988  -0.3877
    -0.3558  -0.3497  -0.3275  -0.3090  -0.2736  -0.2652  -0.2550  -0.2317
    -0.2257  -0.2229  -0.1955  -0.1749  -0.1689  -0.1581  -0.1038  -0.1036
    -0.0829  -0.0758  -0.0203  -0.0114  -0.0112   0.0307   0.0917   0.1080
     0.1127   0.1597   0.2532   0.2713   0.3012   0.3506   0.3664   0.3672
     0.4062   0.4359   0.4392   0.4612   0.4751   0.4849   0.4951   0.5177
     0.5670   0.6379   0.6439   0.6477   0.6651   0.6772   0.6895   0.7075
     0.7327   0.7506   0.7619   0.7752   0.8006   0.8079   0.8208   0.8395
     0.8739   0.8759   0.9005   0.9630   0.9984   1.0132   1.0479   1.0576
     1.0655   1.0666   1.0795   1.0844   1.1094   1.1244   1.1420   1.1525
     1.1690   1.1746   1.1859   1.1934   1.2001   1.2127   1.2141   1.2290
     1.2389   1.2398   1.2400   1.2723   1.2834   1.3028   1.3050   1.3153
     1.3194   1.3501   1.3596   1.4020   1.4094   1.4206   1.4245   1.4278
     1.5450   1.5456   1.5720   1.5829   1.5859   1.6054   1.6260   1.6780
     1.6867   1.9302   2.2179   2.5997   2.6043   2.6557   2.8939   3.2291
     3.2461   3.3828   3.4156   3.4352   3.7001   3.7154   3.7235   3.7569
     3.7712   4.1686   4.2167   4.6181   4.6495   4.6832   4.9460   5.1341
     5.3076   5.3463   5.3645   5.4625   5.4916   5.7762   5.9731   6.0212
     6.0242   6.0408   6.1730   6.4050   6.4827   6.5062   6.6887   6.6949
     6.6984   6.7906   6.7976   6.9103   7.1061   7.4186   7.5258   7.5310
     7.6728   7.6745   7.8680   7.9282   7.9346   7.9425   7.9593   8.0117
     8.0130   8.2796   8.4051   8.4082   8.4094   8.4544   8.5847   8.6520
     8.6752

          k = 0.0000 0.0538 0.0000 ( 51003 PWs)   bands (ev):

   -17.3072  -6.9742  -6.5371  -6.1157  -5.7131  -4.9722  -4.3760  -4.3007
    -4.1055  -4.0299  -3.9941  -3.6828  -3.6005  -3.5290  -3.4654  -3.4206
    -3.2262  -3.1405  -3.0844  -3.0573  -2.9741  -2.8713  -2.8591  -2.8143
    -2.7815  -2.6918  -2.5380  -2.4776  -2.4576  -2.4159  -2.3602  -2.3508
    -2.3328  -2.3048  -2.2631  -2.1505  -2.1166  -2.0753  -2.0453  -2.0119
    -1.9628  -1.9495  -1.9180  -1.8744  -1.8521  -1.8061  -1.7726  -1.7536
    -1.7416  -1.6609  -1.5771  -1.5585  -1.5466  -1.5362  -1.5144  -1.4896
    -1.4431  -1.3644  -1.3520  -1.3354  -1.3214  -1.3017  -1.2808  -1.2583
    -1.2440  -1.2284  -1.1345  -1.1169  -1.0605  -1.0091  -0.9947  -0.9619
    -0.9312  -0.9166  -0.8830  -0.8498  -0.8228  -0.7942  -0.7822  -0.7598
    -0.7470  -0.7322  -0.7259  -0.6943  -0.6878  -0.6334  -0.6175  -0.5784
    -0.5485  -0.5411  -0.5131  -0.4986  -0.4787  -0.4642  -0.4519  -0.4382
    -0.4170  -0.3678  -0.3578  -0.3434  -0.3220  -0.2970  -0.2653  -0.2577
    -0.2108  -0.2053  -0.1774  -0.1649  -0.1208  -0.1160  -0.0698  -0.0444
    -0.0303   0.0044   0.0307   0.0343   0.0518   0.0910   0.1225   0.1530
     0.1669   0.1817   0.2126   0.2467   0.2599   0.2687   0.2941   0.3223
     0.3318   0.3468   0.3591   0.3757   0.3837   0.4031   0.4241   0.4621
     0.4807   0.5304   0.5546   0.6145   0.6406   0.6570   0.6654   0.6782
     0.6973   0.7432   0.7530   0.7893   0.8026   0.8180   0.8669   0.9159
     0.9272   0.9432   0.9685   0.9823   0.9928   1.0104   1.0224   1.0275
     1.0571   1.0666   1.0971   1.1075   1.1210   1.1274   1.1395   1.1548
     1.1623   1.1738   1.1827   1.1894   1.2049   1.2179   1.2483   1.2751
     1.3130   1.3473   1.3591   1.3773   1.3861   1.4033   1.4234   1.4310
     1.4513   1.4554   1.4796   1.4968   1.5154   1.5193   1.5306   1.5345
     1.5396   1.6124   1.6533   1.7130   1.8560   1.9324   1.9610   1.9889
     2.1076   2.2230   2.4016   2.4517   2.5190   2.6177   2.7364   2.9701
     3.0972   3.2238   3.3581   3.5301   3.7312   3.7689   3.7946   3.8847
     3.9902   4.2529   4.3312   4.4487   4.5717   4.5953   4.6057   4.8005
     4.9002   4.9717   5.0462   5.4043   5.4407   5.5530   5.6480   5.8451
     5.8653   5.9264   5.9762   6.2871   6.3537   6.3772   6.4488   6.5015
     6.7067   6.7523   6.7855   6.8207   7.1243   7.1609   7.1830   7.2723
     7.3801   7.4684   7.5315   7.6815   7.7608   7.8391   7.8890   8.0991
     8.1301   8.2215   8.2459   8.3488   8.4059   8.4964   8.5129   8.5657
     8.7396

          k = 0.0254 0.0179 0.0000 ( 50993 PWs)   bands (ev):

   -17.3073  -7.2762  -6.8301  -5.2307  -4.9281  -4.8635  -4.6095  -4.5695
    -4.5366  -4.3047  -4.2797  -3.9512  -3.6936  -3.5411  -3.4281  -3.3143
    -3.1184  -3.0803  -3.0684  -3.0524  -2.9841  -2.9445  -2.8895  -2.8246
    -2.7647  -2.7120  -2.4751  -2.3217  -2.2965  -2.2813  -2.2454  -2.2297
    -2.1744  -2.1511  -2.1452  -2.1102  -2.1067  -2.0346  -2.0165  -1.9984
    -1.9798  -1.9638  -1.8890  -1.8810  -1.8559  -1.8553  -1.8174  -1.7989
    -1.7458  -1.7255  -1.7108  -1.7095  -1.5999  -1.5904  -1.5650  -1.5354
    -1.4820  -1.4790  -1.4747  -1.4691  -1.2664  -1.2569  -1.2372  -1.1810
    -1.1619  -1.1250  -1.1072  -1.0996  -1.0800  -1.0360  -1.0294  -0.9446
    -0.9078  -0.9051  -0.8463  -0.8369  -0.7999  -0.7858  -0.7802  -0.7752
    -0.7347  -0.7318  -0.7026  -0.5797  -0.5176  -0.5008  -0.4806  -0.4731
    -0.4588  -0.4422  -0.4379  -0.4226  -0.4075  -0.3993  -0.3926  -0.3752
    -0.3636  -0.3464  -0.3378  -0.3193  -0.3161  -0.3022  -0.2869  -0.2660
    -0.2605  -0.2276  -0.2244  -0.2074  -0.1984  -0.1822  -0.1596  -0.1320
    -0.0780  -0.0489  -0.0382  -0.0360  -0.0027   0.0534   0.0644   0.1144
     0.1342   0.1865   0.1881   0.2437   0.2729   0.2999   0.3214   0.3286
     0.3598   0.3600   0.4264   0.4282   0.4664   0.4974   0.4980   0.5112
     0.5477   0.5724   0.5854   0.6336   0.6622   0.6942   0.7221   0.7254
     0.7494   0.7785   0.7967   0.8263   0.8405   0.8516   0.8610   0.8678
     0.8702   0.9172   0.9454   0.9581   0.9769   0.9871   1.0238   1.0333
     1.0878   1.1049   1.1136   1.1286   1.1363   1.1441   1.1492   1.1548
     1.1658   1.1731   1.1835   1.1890   1.2039   1.2108   1.2169   1.2185
     1.2261   1.2417   1.2485   1.2598   1.2814   1.3072   1.3700   1.3732
     1.3913   1.3917   1.4162   1.4452   1.4804   1.4922   1.4988   1.5087
     1.5105   1.5333   1.5532   1.5615   1.5766   1.5818   1.6352   1.7232
     1.7254   1.9194   2.0481   2.2157   2.3678   2.5657   2.6312   2.8459
     3.2870   3.4179   3.4397   3.4896   3.5566   3.6042   3.7926   3.9153
     4.1002   4.2723   4.2985   4.5476   4.6613   4.8861   5.0877   5.0885
     5.2525   5.4085   5.5312   5.5750   5.6311   5.7790   5.9008   6.0574
     6.0866   6.2287   6.2742   6.4411   6.4681   6.4722   6.5380   6.7817
     6.8549   7.0090   7.0219   7.1079   7.2361   7.2556   7.4884   7.5863
     7.6288   7.7248   7.8040   7.8168   7.8187   7.8875   7.8885   7.9082
     7.9622   7.9829   8.1402   8.2795   8.3044   8.3372   8.3564   8.3932
     8.4410

          k = 0.0254 0.0718 0.0000 ( 51003 PWs)   bands (ev):

   -17.3072  -6.9742  -6.5371  -6.1157  -5.7131  -4.9722  -4.3760  -4.3007
    -4.1055  -4.0299  -3.9941  -3.6828  -3.6005  -3.5291  -3.4654  -3.4206
    -3.2262  -3.1405  -3.0844  -3.0573  -2.9741  -2.8713  -2.8591  -2.8143
    -2.7815  -2.6918  -2.5380  -2.4776  -2.4576  -2.4159  -2.3602  -2.3508
    -2.3328  -2.3048  -2.2630  -2.1505  -2.1166  -2.0753  -2.0453  -2.0119
    -1.9628  -1.9495  -1.9179  -1.8745  -1.8521  -1.8062  -1.7726  -1.7536
    -1.7415  -1.6609  -1.5771  -1.5585  -1.5466  -1.5363  -1.5143  -1.4896
    -1.4432  -1.3645  -1.3519  -1.3354  -1.3214  -1.3017  -1.2808  -1.2582
    -1.2440  -1.2284  -1.1345  -1.1169  -1.0606  -1.0091  -0.9947  -0.9618
    -0.9313  -0.9165  -0.8830  -0.8498  -0.8228  -0.7942  -0.7823  -0.7599
    -0.7470  -0.7323  -0.7258  -0.6943  -0.6878  -0.6335  -0.6175  -0.5784
    -0.5485  -0.5412  -0.5131  -0.4985  -0.4787  -0.4642  -0.4519  -0.4382
    -0.4170  -0.3678  -0.3578  -0.3434  -0.3220  -0.2969  -0.2653  -0.2578
    -0.2109  -0.2052  -0.1774  -0.1649  -0.1208  -0.1160  -0.0698  -0.0444
    -0.0303   0.0044   0.0307   0.0343   0.0518   0.0910   0.1225   0.1531
     0.1669   0.1816   0.2126   0.2467   0.2599   0.2687   0.2941   0.3224
     0.3317   0.3468   0.3591   0.3757   0.3837   0.4031   0.4240   0.4621
     0.4808   0.5304   0.5546   0.6146   0.6405   0.6569   0.6654   0.6782
     0.6974   0.7433   0.7530   0.7893   0.8025   0.8180   0.8669   0.9159
     0.9273   0.9431   0.9686   0.9822   0.9928   1.0105   1.0223   1.0275
     1.0571   1.0666   1.0971   1.1075   1.1210   1.1273   1.1395   1.1548
     1.1623   1.1738   1.1827   1.1894   1.2049   1.2179   1.2483   1.2751
     1.3131   1.3474   1.3591   1.3772   1.3861   1.4033   1.4233   1.4310
     1.4513   1.4553   1.4797   1.4968   1.5153   1.5193   1.5306   1.5345
     1.5395   1.6124   1.6533   1.7131   1.8560   1.9324   1.9609   1.9888
     2.1076   2.2230   2.4016   2.4518   2.5191   2.6176   2.7363   2.9701
     3.0971   3.2238   3.3581   3.5301   3.7312   3.7689   3.7947   3.8846
     3.9903   4.2528   4.3312   4.4488   4.5715   4.5952   4.6056   4.8005
     4.9002   4.9718   5.0462   5.4046   5.4402   5.5533   5.6481   5.8443
     5.8653   5.9267   5.9762   6.2874   6.3536   6.3772   6.4488   6.5018
     6.7066   6.7522   6.7854   6.8205   7.1241   7.1612   7.1828   7.2724
     7.3801   7.4684   7.5317   7.6814   7.7609   7.8390   7.8891   8.0990
     8.1301   8.2216   8.2458   8.3487   8.4059   8.4965   8.5130   8.5657
     8.7397

          k = 0.0254-0.0359 0.0000 ( 51064 PWs)   bands (ev):

   -17.3072  -7.1224  -6.2557  -5.8560  -5.8354  -5.0897  -5.0790  -4.4272
    -4.0778  -3.8616  -3.7364  -3.6014  -3.5993  -3.3943  -3.3219  -3.2809
    -3.2300  -3.1400  -3.0961  -3.0280  -2.9249  -2.8373  -2.7872  -2.7812
    -2.7510  -2.7209  -2.7119  -2.5708  -2.4599  -2.4276  -2.3832  -2.3815
    -2.3423  -2.2687  -2.2099  -2.1989  -2.1765  -2.1531  -2.1316  -2.1156
    -1.9948  -1.9377  -1.9236  -1.8148  -1.8030  -1.7716  -1.7453  -1.7206
    -1.7126  -1.6955  -1.6644  -1.6580  -1.6486  -1.5850  -1.5349  -1.3888
    -1.3604  -1.3145  -1.2959  -1.2358  -1.2228  -1.2060  -1.1722  -1.1658
    -1.1513  -1.1485  -1.1199  -1.0765  -1.0610  -1.0497  -1.0385  -1.0373
    -1.0236  -0.9921  -0.9912  -0.9456  -0.9275  -0.8680  -0.8654  -0.7669
    -0.7316  -0.7165  -0.7041  -0.6714  -0.6460  -0.6243  -0.6003  -0.5885
    -0.5567  -0.5229  -0.5015  -0.4948  -0.4897  -0.4500  -0.4434  -0.4105
    -0.3945  -0.3768  -0.3458  -0.3362  -0.3119  -0.2953  -0.2571  -0.2557
    -0.2284  -0.2121  -0.1986  -0.1837  -0.1504  -0.1295  -0.1180  -0.0825
    -0.0756  -0.0628  -0.0265   0.0028   0.0381   0.0725   0.1009   0.1094
     0.1592   0.1829   0.2185   0.2322   0.2441   0.2778   0.2791   0.2975
     0.2994   0.3762   0.3811   0.3942   0.4056   0.4619   0.4817   0.4821
     0.5370   0.5590   0.5694   0.5973   0.6372   0.6463   0.6853   0.7223
     0.7603   0.7730   0.8226   0.8376   0.8617   0.8755   0.8873   0.8918
     0.8949   0.9046   0.9244   0.9453   0.9764   0.9802   1.0014   1.0243
     1.0422   1.0474   1.0495   1.0578   1.0664   1.1092   1.1340   1.1732
     1.1800   1.2075   1.2119   1.2174   1.2257   1.2269   1.2438   1.2444
     1.2758   1.2930   1.3134   1.3227   1.3527   1.4169   1.4425   1.4521
     1.4692   1.4696   1.4855   1.4877   1.4895   1.5217   1.5378   1.5891
     1.6015   1.6593   1.6843   1.8125   1.9170   1.9303   2.0145   2.1081
     2.1362   2.1920   2.2595   2.3726   2.3782   2.7090   2.9763   3.0077
     3.1462   3.3415   3.4206   3.6450   3.6578   3.7196   3.7617   3.8168
     3.9229   4.0767   4.1008   4.1467   4.4148   4.4551   4.6660   4.7446
     4.9275   5.2576   5.2806   5.3620   5.5312   5.5521   5.5589   5.6386
     5.6567   5.7791   6.1335   6.2894   6.3351   6.3863   6.5118   6.5230
     6.6046   6.8567   6.9701   6.9752   6.9928   7.0166   7.1651   7.2557
     7.5203   7.5466   7.5521   7.6254   7.7099   7.7445   7.8343   7.8734
     8.2397   8.2953   8.3572   8.3850   8.4251   8.5241   8.5268   8.6137
     8.8876

     the Fermi energy is     0.4482 ev

!    total energy              =   -2918.20581715 Ry
     Harris-Foulkes estimate   =   -2918.20529644 Ry
     estimated scf accuracy    <       0.00000050 Ry

     The total energy is the sum of the following terms:

     one-electron contribution =  -15118.11997336 Ry
     hartree contribution      =    7872.34867093 Ry
     xc contribution           =   -1335.75834622 Ry
     ewald contribution        =    5663.44426027 Ry
     electric field correction =       0.00022230 Ry
     smearing contrib. (-TS)   =      -0.12065108 Ry

     total magnetization       =    63.81 Bohr mag/cell
     absolute magnetization    =    70.19 Bohr mag/cell

     convergence has been achieved in  31 iterations

     Forces acting on atoms (Ry/au):


     negative rho (up, down):  4.428E-03 1.332E-02
     atom    1 type  1   force =     0.00114938    0.00084407    0.02838629
     atom    2 type  1   force =     0.00092289   -0.00125489   -0.02370296
     atom    3 type  1   force =    -0.00066073   -0.00048181   -0.00012349
     atom    4 type  1   force =     0.00012699   -0.00020648   -0.00075196
     atom    5 type  1   force =     0.00025720    0.00031368    0.02996722
     atom    6 type  1   force =    -0.00086684    0.00125518   -0.02372834
     atom    7 type  1   force =    -0.00022578    0.00038881   -0.00035929
     atom    8 type  1   force =    -0.00011194    0.00014579   -0.00069749
     atom    9 type  1   force =     0.00034794    0.00015499    0.02994818
     atom   10 type  1   force =    -0.00001821   -0.00000396   -0.03157786
     atom   11 type  1   force =     0.00027284   -0.00033713   -0.00035689
     atom   12 type  1   force =    -0.00000817    0.00000280   -0.00001273
     atom   13 type  1   force =    -0.00035803   -0.00031251    0.03011382
     atom   14 type  1   force =     0.00039934    0.00027996   -0.03011732
     atom   15 type  1   force =     0.00009461   -0.00047037   -0.00044898
     atom   16 type  1   force =     0.00003166    0.00003594    0.00058873
     atom   17 type  1   force =    -0.00121385   -0.00082507    0.02846228
     atom   18 type  1   force =     0.00125157   -0.00064794   -0.03117014
     atom   19 type  1   force =     0.00053691    0.00037944   -0.00020276
     atom   20 type  1   force =     0.00002081   -0.00020009    0.00045194
     atom   21 type  1   force =    -0.00037842   -0.00023642    0.03004639
     atom   22 type  1   force =    -0.00020975    0.00138430   -0.03120637
     atom   23 type  1   force =    -0.00040700    0.00025981   -0.00043090
     atom   24 type  1   force =    -0.00019202    0.00009046    0.00044912
     atom   25 type  1   force =    -0.00008795    0.00024695    0.02943276
     atom   26 type  1   force =    -0.00125046    0.00063981   -0.03110721
     atom   27 type  1   force =     0.00018992    0.00000594    0.00049778
     atom   28 type  1   force =    -0.00002464    0.00019227    0.00027703
     atom   29 type  1   force =     0.00021441   -0.00016973    0.02948893
     atom   30 type  1   force =    -0.00038748   -0.00026703   -0.03008199
     atom   31 type  1   force =     0.00007400    0.00018294    0.00048652
     atom   32 type  1   force =    -0.00003547   -0.00001859    0.00040313
     atom   33 type  1   force =     0.00002890    0.00003737    0.02854214
     atom   34 type  1   force =     0.00021524   -0.00142380   -0.03111785
     atom   35 type  1   force =     0.00013758    0.00009115    0.00040420
     atom   36 type  1   force =     0.00018441   -0.00010755    0.00027112
     atom   37 type  2   force =    -0.00001986    0.00003171   -0.00102307

     Total force =     0.124946     Total SCF correction =     0.002408
 !ASE

     Writing output data file calc.save
 
     init_run     :     30.46s CPU     38.58s WALL (       1 calls)
     electrons    :  21800.71s CPU  27580.60s WALL (       8 calls)
     update_pot   :     23.35s CPU     25.39s WALL (       7 calls)
     forces       :    266.81s CPU    277.33s WALL (       8 calls)

     Called by init_run:
     wfcinit      :     19.44s CPU     26.78s WALL (       1 calls)
     potinit      :      1.34s CPU      1.52s WALL (       1 calls)

     Called by electrons:
     c_bands      :  14576.42s CPU  19116.23s WALL (     336 calls)
     sum_band     :   5026.62s CPU   6071.49s WALL (     336 calls)
     v_of_rho     :    181.97s CPU    223.62s WALL (     344 calls)
     newd         :   2011.87s CPU   2152.06s WALL (     344 calls)
     mix_rho      :     36.12s CPU     46.29s WALL (     336 calls)

     Called by c_bands:
     init_us_2    :     63.17s CPU     69.23s WALL (    6810 calls)
     cegterg      :  14219.99s CPU  18741.59s WALL (    3360 calls)

     Called by *egterg:
     h_psi        :   8481.14s CPU  12256.68s WALL (   11400 calls)
     s_psi        :    704.74s CPU    731.70s WALL (   11400 calls)
     g_psi        :     42.77s CPU     44.03s WALL (    8030 calls)
     cdiaghg      :   2291.62s CPU   2345.10s WALL (   11320 calls)

     Called by h_psi:
     add_vuspsi   :    706.22s CPU    735.64s WALL (   11400 calls)

     General routines
     calbec       :   1096.39s CPU   1122.93s WALL (   14840 calls)
     fft          :    186.06s CPU    229.18s WALL (   10736 calls)
     ffts         :      2.67s CPU      3.93s WALL (    1360 calls)
     fftw         :   5624.82s CPU  10197.15s WALL ( 4712116 calls)
     interpolate  :     20.84s CPU     33.24s WALL (    1360 calls)
     davcio       :      0.05s CPU      1.23s WALL (      10 calls)
 
     Parallel routines
     fft_scatter  :   3185.73s CPU   5919.48s WALL ( 4724212 calls)
 
     PWSCF        :     6h 9m CPU        7h46m WALL

 
   This run was terminated on:  12:31:16  24Feb2018            

=------------------------------------------------------------------------------=
   JOB DONE.
=------------------------------------------------------------------------------=
