  python dir          : /home/vossj/suncat/lib/python2.7/site-packages/espresso
  espresso dir        : /home/vossj/suncat/esdld/espresso-dynpy-beef/bin
  pseudo dir          : /home/alatimer/bin/psp/esp_psp_w_gbrvRu/
  ase-espresso py git : ffa2778-git



     Program PWSCF v.5.1rc2 (svn rev. ) starts on 23Feb2018 at 17:52:30 

     This program is part of the open-source Quantum ESPRESSO suite
     for quantum simulation of materials; please cite
         "P. Giannozzi et al., J. Phys.:Condens. Matter 21 395502 (2009);
          URL http://www.quantum-espresso.org", 
     in publications or presentations arising from this work. More details at
     http://www.quantum-espresso.org/quote

     Parallel version (MPI), running on    16 processors
     R & G space division:  proc/nbgrp/npool/nimage =      16
     Reading input from pw.inp
     Message from routine read_cards :
     DEPRECATED: no units specified in CELL_PARAMETERS card

     Current dimensions of program PWSCF are:
     Max number of different atomic species (ntypx) = 10
     Max number of k-points (npk) =  40000
     Max angular momentum in pseudopotentials (lmaxx) =  3
     Presently no symmetry can be used with electric field


     IMPORTANT: XC functional enforced from input :
     Exchange-correlation      = RPBE ( 1  4 28  4 0)
     Any further DFT definition will be discarded
     Please, verify this is what you really want

               file Ni.UPF: wavefunction(s)  3D renormalized

     Subspace diagonalization in iterative solution of the eigenvalue problem:
     a serial algorithm will be used

 
     Parallelization info
     --------------------
     sticks:   dense  smooth     PW     G-vecs:    dense   smooth      PW
     Min         630     252     68                99782    25206    3526
     Max         631     253     69                99791    25249    3527
     Sum       10093    4041   1091              1596589   403729   56419
 
     Generating pointlists ...
     new r_m :   0.4125 (alat units)  0.7795 (a.u.) for type    1
     new r_m :   0.4125 (alat units)  0.7795 (a.u.) for type    2


     bravais-lattice index     =            0
     lattice parameter (alat)  =       1.8897  a.u.
     unit-cell volume          =   10207.8337 (a.u.)^3
     number of atoms/cell      =           37
     number of atomic types    =            2
     number of electrons       =       366.00
     number of Kohn-Sham states=          283
     kinetic-energy cutoff     =      44.0992  Ry
     charge density cutoff     =     440.9919  Ry
     convergence threshold     =      7.3E-07
     mixing beta               =       0.1000
     number of iterations used =           10  plain     mixing
     Exchange-correlation      = RPBE ( 1  4 28  4 0)
     nstep                     =           50


     celldm(1)=   1.889726  celldm(2)=   0.000000  celldm(3)=   0.000000
     celldm(4)=   0.000000  celldm(5)=   0.000000  celldm(6)=   0.000000

     crystal axes: (cart. coord. in units of alat)
               a(1) = (  13.073539   0.000000   0.000000 )  
               a(2) = (  -4.357846   6.162925   0.000000 )  
               a(3) = (   0.000000   0.000000  18.774005 )  

     reciprocal axes: (cart. coord. in units 2 pi/alat)
               b(1) = (  0.076490  0.054087  0.000000 )  
               b(2) = (  0.000000  0.162261  0.000000 )  
               b(3) = (  0.000000  0.000000  0.053265 )  


     PseudoPot. # 1 for Ni read from file:
     /home/alatimer/bin/psp/esp_psp_w_gbrvRu/Ni.UPF
     MD5 check sum: 8b2449ee0060d9c33484ccd47bb60870
     Pseudo is Ultrasoft + core correction, Zval = 10.0
     Generated using "atomic" code by A. Dal Corso  v.5.0.2 svn rev. 9415
     Using radial grid of 1195 points,  6 beta functions with: 
                l(1) =   0
                l(2) =   0
                l(3) =   1
                l(4) =   1
                l(5) =   2
                l(6) =   2
     Q(r) pseudized with 0 coefficients 


     PseudoPot. # 2 for  O read from file:
     /home/alatimer/bin/psp/esp_psp_w_gbrvRu/O.UPF
     MD5 check sum: e057bbcf3229fb5d8c36c0c92f9568b4
     Pseudo is Ultrasoft + core correction, Zval =  6.0
     Generated using "atomic" code by A. Dal Corso  v.5.0.2 svn rev. 9415
     Using radial grid of 1095 points,  4 beta functions with: 
                l(1) =   0
                l(2) =   0
                l(3) =   1
                l(4) =   1
     Q(r) pseudized with 0 coefficients 


     atomic species   valence    mass     pseudopotential
        Ni1           10.00    58.69340     Ni( 1.00)
        O1             6.00    15.99940      O( 1.00)

     Starting magnetic structure 
     atomic species   magnetization
        Ni1          0.300
        O1           0.500

     No symmetry found



   Cartesian axes

     site n.     atom                  positions (alat units)
         1           Ni1 tau(   1) = (   0.0000000   0.0000000   7.5000000  )
         2           Ni1 tau(   2) = (   2.1789231   0.0000000   8.7580018  )
         3           Ni1 tau(   3) = (   0.0000000   0.0000000  10.0160037  )
         4           Ni1 tau(   4) = (   2.1789231   0.0000000  11.2740055  )
         5           Ni1 tau(   5) = (  -1.4526154   2.0543084   7.5000000  )
         6           Ni1 tau(   6) = (   0.7263077   2.0543084   8.7580018  )
         7           Ni1 tau(   7) = (  -1.4526154   2.0543084  10.0160037  )
         8           Ni1 tau(   8) = (   0.7263077   2.0543084  11.2740055  )
         9           Ni1 tau(   9) = (  -2.9052308   4.1086168   7.5000000  )
        10           Ni1 tau(  10) = (  -0.7263077   4.1086168   8.7580018  )
        11           Ni1 tau(  11) = (  -2.9052308   4.1086168  10.0160037  )
        12           Ni1 tau(  12) = (  -0.7263077   4.1086168  11.2740055  )
        13           Ni1 tau(  13) = (   4.3578462   0.0000000   7.5000000  )
        14           Ni1 tau(  14) = (   6.5367693   0.0000000   8.7580018  )
        15           Ni1 tau(  15) = (   4.3578462   0.0000000  10.0160037  )
        16           Ni1 tau(  16) = (   6.5367693   0.0000000  11.2740055  )
        17           Ni1 tau(  17) = (   2.9052308   2.0543084   7.5000000  )
        18           Ni1 tau(  18) = (   5.0841539   2.0543084   8.7580018  )
        19           Ni1 tau(  19) = (   2.9052308   2.0543084  10.0160037  )
        20           Ni1 tau(  20) = (   5.0841539   2.0543084  11.2740055  )
        21           Ni1 tau(  21) = (   1.4526154   4.1086168   7.5000000  )
        22           Ni1 tau(  22) = (   3.6315385   4.1086168   8.7580018  )
        23           Ni1 tau(  23) = (   1.4526154   4.1086168  10.0160037  )
        24           Ni1 tau(  24) = (   3.6315385   4.1086168  11.2740055  )
        25           Ni1 tau(  25) = (   8.7156924   0.0000000   7.5000000  )
        26           Ni1 tau(  26) = (  10.8946154   0.0000000   8.7580018  )
        27           Ni1 tau(  27) = (   8.7156924   0.0000000  10.0160037  )
        28           Ni1 tau(  28) = (  10.8946154   0.0000000  11.2740055  )
        29           Ni1 tau(  29) = (   7.2630770   2.0543084   7.5000000  )
        30           Ni1 tau(  30) = (   9.4420001   2.0543084   8.7580018  )
        31           Ni1 tau(  31) = (   7.2630770   2.0543084  10.0160037  )
        32           Ni1 tau(  32) = (   9.4420001   2.0543084  11.2740055  )
        33           Ni1 tau(  33) = (   5.8104616   4.1086168   7.5000000  )
        34           Ni1 tau(  34) = (   7.9893847   4.1086168   8.7580018  )
        35           Ni1 tau(  35) = (   5.8104616   4.1086168  10.0160037  )
        36           Ni1 tau(  36) = (   7.9893847   4.1086168  11.2740055  )
        37           O1  tau(  37) = (   1.4726137   1.0371534  12.6737555  )

     number of k points=    10  Fermi-Dirac smearing, width (Ry)=  0.0073
                       cart. coord. in units 2pi/alat
        k(    1) = (   0.0000000   0.0000000   0.0000000), wk =   0.1111111
        k(    2) = (   0.0000000   0.0540869   0.0000000), wk =   0.2222222
        k(    3) = (   0.0254968   0.0180290   0.0000000), wk =   0.2222222
        k(    4) = (   0.0254968   0.0721158   0.0000000), wk =   0.2222222
        k(    5) = (   0.0254968  -0.0360579   0.0000000), wk =   0.2222222
        k(    6) = (   0.0000000   0.0000000   0.0000000), wk =   0.1111111
        k(    7) = (   0.0000000   0.0540869   0.0000000), wk =   0.2222222
        k(    8) = (   0.0254968   0.0180290   0.0000000), wk =   0.2222222
        k(    9) = (   0.0254968   0.0721158   0.0000000), wk =   0.2222222
        k(   10) = (   0.0254968  -0.0360579   0.0000000), wk =   0.2222222

     Dense  grid:  1596589 G-vectors     FFT dimensions: ( 180,  96, 240)

     Smooth grid:   403729 G-vectors     FFT dimensions: ( 108,  64, 150)

     Largest allocated arrays     est. size (Mb)     dimensions
        Kohn-Sham Wavefunctions        13.74 Mb     (    3181,  283)
        NL pseudopotentials            31.84 Mb     (    3181,  656)
        Each V/rho on FFT grid          7.91 Mb     (  259200,   2)
        Each G-vector array             0.76 Mb     (   99791)
        G-vector shells                 0.33 Mb     (   42988)
     Largest temporary arrays     est. size (Mb)     dimensions
        Auxiliary wavefunctions        54.95 Mb     (    3181, 1132)
        Each subspace H/S matrix       19.55 Mb     (    1132, 1132)
        Each <psi_i|beta_j> matrix      2.83 Mb     (     656,  283)
        Arrays for rho mixing          39.55 Mb     (  259200,   10)

     Check: negative/imaginary core charge=   -0.000003    0.000000

     Initial potential from superposition of free atoms
     Check: negative starting charge=(component1):   -0.000539
     Check: negative starting charge=(component2):   -0.000284

     starting charge  365.99096, renormalised to  366.00000

     negative rho (up, down):  5.391E-04 2.842E-04
 
     Adding external electric field

     Computed dipole along edir(3) : 
        Dipole               -0.0009 Ry au,         -0.0023 Debye
        Dipole field         -0.0000 Ry au
 
        Potential amp.        0.0001 Ry
        Total length         34.5908 bohr
 
 
     Adding external electric field

     Computed dipole along edir(3) : 
        Dipole               -0.0009 Ry au,         -0.0023 Debye
        Dipole field         -0.0000 Ry au
 
        Potential amp.        0.0001 Ry
        Total length         34.5908 bohr
 
     Starting wfc are  328 randomized atomic wfcs

     total cpu time spent up to now is       52.8 secs

     Self-consistent Calculation

     iteration #  1     ecut=    44.10 Ry     beta=0.10
     Davidson diagonalization with overlap
     ethr =  1.00E-02,  avg # of iterations =  7.1

     negative rho (up, down):  5.021E-04 2.616E-04
 
     Adding external electric field

     Computed dipole along edir(3) : 
        Dipole               -0.0918 Ry au,         -0.2334 Debye
        Dipole field         -0.0001 Ry au
 
        Potential amp.        0.0078 Ry
        Total length         34.5908 bohr
 
 
     Adding external electric field

     Computed dipole along edir(3) : 
        Dipole               -0.0918 Ry au,         -0.2334 Debye
        Dipole field         -0.0001 Ry au
 
        Potential amp.        0.0078 Ry
        Total length         34.5908 bohr
 
 
     Magnetic moment per site:
     atom:    1    charge:    3.9562    magn:    1.1253    constr:    0.0000
     atom:    2    charge:    3.9773    magn:    1.1062    constr:    0.0000
     atom:    3    charge:    3.9772    magn:    1.1075    constr:    0.0000
     atom:    4    charge:    3.9482    magn:    1.1351    constr:    0.0000
     atom:    5    charge:    3.9563    magn:    1.1249    constr:    0.0000
     atom:    6    charge:    3.9773    magn:    1.1062    constr:    0.0000
     atom:    7    charge:    3.9774    magn:    1.1063    constr:    0.0000
     atom:    8    charge:    3.9484    magn:    1.1350    constr:    0.0000
     atom:    9    charge:    3.9563    magn:    1.1249    constr:    0.0000
     atom:   10    charge:    3.9768    magn:    1.1072    constr:    0.0000
     atom:   11    charge:    3.9774    magn:    1.1063    constr:    0.0000
     atom:   12    charge:    3.9565    magn:    1.1250    constr:    0.0000
     atom:   13    charge:    3.9563    magn:    1.1249    constr:    0.0000
     atom:   14    charge:    3.9767    magn:    1.1069    constr:    0.0000
     atom:   15    charge:    3.9774    magn:    1.1064    constr:    0.0000
     atom:   16    charge:    3.9563    magn:    1.1247    constr:    0.0000
     atom:   17    charge:    3.9562    magn:    1.1253    constr:    0.0000
     atom:   18    charge:    3.9766    magn:    1.1071    constr:    0.0000
     atom:   19    charge:    3.9772    magn:    1.1075    constr:    0.0000
     atom:   20    charge:    3.9561    magn:    1.1249    constr:    0.0000
     atom:   21    charge:    3.9563    magn:    1.1249    constr:    0.0000
     atom:   22    charge:    3.9766    magn:    1.1071    constr:    0.0000
     atom:   23    charge:    3.9774    magn:    1.1064    constr:    0.0000
     atom:   24    charge:    3.9561    magn:    1.1249    constr:    0.0000
     atom:   25    charge:    3.9558    magn:    1.1252    constr:    0.0000
     atom:   26    charge:    3.9766    magn:    1.1071    constr:    0.0000
     atom:   27    charge:    3.9765    magn:    1.1072    constr:    0.0000
     atom:   28    charge:    3.9561    magn:    1.1249    constr:    0.0000
     atom:   29    charge:    3.9558    magn:    1.1252    constr:    0.0000
     atom:   30    charge:    3.9767    magn:    1.1069    constr:    0.0000
     atom:   31    charge:    3.9765    magn:    1.1072    constr:    0.0000
     atom:   32    charge:    3.9563    magn:    1.1247    constr:    0.0000
     atom:   33    charge:    3.9561    magn:    1.1249    constr:    0.0000
     atom:   34    charge:    3.9766    magn:    1.1071    constr:    0.0000
     atom:   35    charge:    3.9764    magn:    1.1072    constr:    0.0000
     atom:   36    charge:    3.9561    magn:    1.1249    constr:    0.0000
     atom:   37    charge:    2.0032    magn:    0.9515    constr:    0.0000

     total cpu time spent up to now is      230.9 secs

     total energy              =   -3653.73422531 Ry
     Harris-Foulkes estimate   =   -3654.88374214 Ry
     estimated scf accuracy    <      11.76107862 Ry

     total magnetization       =    35.81 Bohr mag/cell
     absolute magnetization    =    35.86 Bohr mag/cell

     iteration #  2     ecut=    44.10 Ry     beta=0.10
     Davidson diagonalization with overlap
     ethr =  3.21E-03,  avg # of iterations =  1.1

     negative rho (up, down):  4.966E-04 2.793E-04
 
     Adding external electric field

     Computed dipole along edir(3) : 
        Dipole               -0.1927 Ry au,         -0.4898 Debye
        Dipole field         -0.0002 Ry au
 
        Potential amp.        0.0164 Ry
        Total length         34.5908 bohr
 
 
     Adding external electric field

     Computed dipole along edir(3) : 
        Dipole               -0.1927 Ry au,         -0.4898 Debye
        Dipole field         -0.0002 Ry au
 
        Potential amp.        0.0164 Ry
        Total length         34.5908 bohr
 
 
     Magnetic moment per site:
     atom:    1    charge:    3.9755    magn:    1.0895    constr:    0.0000
     atom:    2    charge:    3.9642    magn:    1.0918    constr:    0.0000
     atom:    3    charge:    3.9637    magn:    1.0945    constr:    0.0000
     atom:    4    charge:    3.9653    magn:    1.1030    constr:    0.0000
     atom:    5    charge:    3.9757    magn:    1.0887    constr:    0.0000
     atom:    6    charge:    3.9642    magn:    1.0918    constr:    0.0000
     atom:    7    charge:    3.9627    magn:    1.0937    constr:    0.0000
     atom:    8    charge:    3.9654    magn:    1.1029    constr:    0.0000
     atom:    9    charge:    3.9757    magn:    1.0887    constr:    0.0000
     atom:   10    charge:    3.9640    magn:    1.0931    constr:    0.0000
     atom:   11    charge:    3.9627    magn:    1.0938    constr:    0.0000
     atom:   12    charge:    3.9748    magn:    1.0900    constr:    0.0000
     atom:   13    charge:    3.9757    magn:    1.0887    constr:    0.0000
     atom:   14    charge:    3.9644    magn:    1.0922    constr:    0.0000
     atom:   15    charge:    3.9627    magn:    1.0937    constr:    0.0000
     atom:   16    charge:    3.9752    magn:    1.0889    constr:    0.0000
     atom:   17    charge:    3.9755    magn:    1.0894    constr:    0.0000
     atom:   18    charge:    3.9644    magn:    1.0923    constr:    0.0000
     atom:   19    charge:    3.9637    magn:    1.0945    constr:    0.0000
     atom:   20    charge:    3.9752    magn:    1.0889    constr:    0.0000
     atom:   21    charge:    3.9757    magn:    1.0887    constr:    0.0000
     atom:   22    charge:    3.9644    magn:    1.0923    constr:    0.0000
     atom:   23    charge:    3.9627    magn:    1.0937    constr:    0.0000
     atom:   24    charge:    3.9752    magn:    1.0889    constr:    0.0000
     atom:   25    charge:    3.9762    magn:    1.0883    constr:    0.0000
     atom:   26    charge:    3.9644    magn:    1.0923    constr:    0.0000
     atom:   27    charge:    3.9640    magn:    1.0928    constr:    0.0000
     atom:   28    charge:    3.9752    magn:    1.0890    constr:    0.0000
     atom:   29    charge:    3.9762    magn:    1.0883    constr:    0.0000
     atom:   30    charge:    3.9643    magn:    1.0922    constr:    0.0000
     atom:   31    charge:    3.9640    magn:    1.0928    constr:    0.0000
     atom:   32    charge:    3.9752    magn:    1.0890    constr:    0.0000
     atom:   33    charge:    3.9761    magn:    1.0882    constr:    0.0000
     atom:   34    charge:    3.9644    magn:    1.0923    constr:    0.0000
     atom:   35    charge:    3.9640    magn:    1.0926    constr:    0.0000
     atom:   36    charge:    3.9752    magn:    1.0890    constr:    0.0000
     atom:   37    charge:    2.0147    magn:    0.9254    constr:    0.0000

     total cpu time spent up to now is      340.7 secs

     total energy              =   -3653.94578401 Ry
     Harris-Foulkes estimate   =   -3654.83375288 Ry
     estimated scf accuracy    <      15.26582980 Ry

     total magnetization       =    37.80 Bohr mag/cell
     absolute magnetization    =    38.06 Bohr mag/cell

     iteration #  3     ecut=    44.10 Ry     beta=0.10
     Davidson diagonalization with overlap
     ethr =  3.21E-03,  avg # of iterations =  1.0

     negative rho (up, down):  4.941E-04 2.796E-04
 
     Adding external electric field

     Computed dipole along edir(3) : 
        Dipole               -0.4490 Ry au,         -1.1413 Debye
        Dipole field         -0.0006 Ry au
 
        Potential amp.        0.0382 Ry
        Total length         34.5908 bohr
 
 
     Adding external electric field

     Computed dipole along edir(3) : 
        Dipole               -0.4490 Ry au,         -1.1413 Debye
        Dipole field         -0.0006 Ry au
 
        Potential amp.        0.0382 Ry
        Total length         34.5908 bohr
 
 
     Magnetic moment per site:
     atom:    1    charge:    3.9969    magn:    0.9861    constr:    0.0000
     atom:    2    charge:    3.9728    magn:    0.9870    constr:    0.0000
     atom:    3    charge:    3.9726    magn:    0.9931    constr:    0.0000
     atom:    4    charge:    3.9880    magn:    1.0042    constr:    0.0000
     atom:    5    charge:    3.9977    magn:    0.9839    constr:    0.0000
     atom:    6    charge:    3.9728    magn:    0.9870    constr:    0.0000
     atom:    7    charge:    3.9728    magn:    0.9897    constr:    0.0000
     atom:    8    charge:    3.9881    magn:    1.0041    constr:    0.0000
     atom:    9    charge:    3.9978    magn:    0.9839    constr:    0.0000
     atom:   10    charge:    3.9736    magn:    0.9894    constr:    0.0000
     atom:   11    charge:    3.9728    magn:    0.9897    constr:    0.0000
     atom:   12    charge:    3.9930    magn:    0.9895    constr:    0.0000
     atom:   13    charge:    3.9975    magn:    0.9841    constr:    0.0000
     atom:   14    charge:    3.9678    magn:    0.9933    constr:    0.0000
     atom:   15    charge:    3.9726    magn:    0.9899    constr:    0.0000
     atom:   16    charge:    3.9888    magn:    0.9919    constr:    0.0000
     atom:   17    charge:    3.9967    magn:    0.9862    constr:    0.0000
     atom:   18    charge:    3.9671    magn:    0.9943    constr:    0.0000
     atom:   19    charge:    3.9725    magn:    0.9933    constr:    0.0000
     atom:   20    charge:    3.9862    magn:    0.9946    constr:    0.0000
     atom:   21    charge:    3.9976    magn:    0.9841    constr:    0.0000
     atom:   22    charge:    3.9671    magn:    0.9943    constr:    0.0000
     atom:   23    charge:    3.9725    magn:    0.9899    constr:    0.0000
     atom:   24    charge:    3.9862    magn:    0.9946    constr:    0.0000
     atom:   25    charge:    3.9906    magn:    0.9907    constr:    0.0000
     atom:   26    charge:    3.9672    magn:    0.9942    constr:    0.0000
     atom:   27    charge:    3.9651    magn:    0.9966    constr:    0.0000
     atom:   28    charge:    3.9865    magn:    0.9943    constr:    0.0000
     atom:   29    charge:    3.9906    magn:    0.9907    constr:    0.0000
     atom:   30    charge:    3.9680    magn:    0.9931    constr:    0.0000
     atom:   31    charge:    3.9652    magn:    0.9966    constr:    0.0000
     atom:   32    charge:    3.9892    magn:    0.9916    constr:    0.0000
     atom:   33    charge:    3.9900    magn:    0.9908    constr:    0.0000
     atom:   34    charge:    3.9672    magn:    0.9942    constr:    0.0000
     atom:   35    charge:    3.9645    magn:    0.9968    constr:    0.0000
     atom:   36    charge:    3.9865    magn:    0.9943    constr:    0.0000
     atom:   37    charge:    2.0436    magn:    0.8311    constr:    0.0000

     total cpu time spent up to now is      450.1 secs

     total energy              =   -3654.49746072 Ry
     Harris-Foulkes estimate   =   -3654.48743705 Ry
     estimated scf accuracy    <       4.24591520 Ry

     total magnetization       =    37.48 Bohr mag/cell
     absolute magnetization    =    37.68 Bohr mag/cell

     iteration #  4     ecut=    44.10 Ry     beta=0.10
     Davidson diagonalization with overlap
     ethr =  1.16E-03,  avg # of iterations =  7.3

     negative rho (up, down):  4.883E-04 2.899E-04
 
     Adding external electric field

     Computed dipole along edir(3) : 
        Dipole               -0.5322 Ry au,         -1.3526 Debye
        Dipole field         -0.0007 Ry au
 
        Potential amp.        0.0453 Ry
        Total length         34.5908 bohr
 
 
     Adding external electric field

     Computed dipole along edir(3) : 
        Dipole               -0.5322 Ry au,         -1.3526 Debye
        Dipole field         -0.0007 Ry au
 
        Potential amp.        0.0453 Ry
        Total length         34.5908 bohr
 
 
     Magnetic moment per site:
     atom:    1    charge:    3.9967    magn:    0.9615    constr:    0.0000
     atom:    2    charge:    3.9683    magn:    0.9635    constr:    0.0000
     atom:    3    charge:    3.9701    magn:    0.9689    constr:    0.0000
     atom:    4    charge:    3.9802    magn:    0.9874    constr:    0.0000
     atom:    5    charge:    3.9973    magn:    0.9594    constr:    0.0000
     atom:    6    charge:    3.9683    magn:    0.9636    constr:    0.0000
     atom:    7    charge:    3.9707    magn:    0.9646    constr:    0.0000
     atom:    8    charge:    3.9802    magn:    0.9873    constr:    0.0000
     atom:    9    charge:    3.9973    magn:    0.9594    constr:    0.0000
     atom:   10    charge:    3.9689    magn:    0.9667    constr:    0.0000
     atom:   11    charge:    3.9707    magn:    0.9646    constr:    0.0000
     atom:   12    charge:    3.9893    magn:    0.9686    constr:    0.0000
     atom:   13    charge:    3.9974    magn:    0.9594    constr:    0.0000
     atom:   14    charge:    3.9716    magn:    0.9631    constr:    0.0000
     atom:   15    charge:    3.9707    magn:    0.9646    constr:    0.0000
     atom:   16    charge:    3.9965    magn:    0.9604    constr:    0.0000
     atom:   17    charge:    3.9968    magn:    0.9615    constr:    0.0000
     atom:   18    charge:    3.9711    magn:    0.9640    constr:    0.0000
     atom:   19    charge:    3.9702    magn:    0.9689    constr:    0.0000
     atom:   20    charge:    3.9942    magn:    0.9630    constr:    0.0000
     atom:   21    charge:    3.9974    magn:    0.9593    constr:    0.0000
     atom:   22    charge:    3.9711    magn:    0.9640    constr:    0.0000
     atom:   23    charge:    3.9707    magn:    0.9646    constr:    0.0000
     atom:   24    charge:    3.9942    magn:    0.9630    constr:    0.0000
     atom:   25    charge:    3.9995    magn:    0.9581    constr:    0.0000
     atom:   26    charge:    3.9711    magn:    0.9640    constr:    0.0000
     atom:   27    charge:    3.9714    magn:    0.9645    constr:    0.0000
     atom:   28    charge:    3.9944    magn:    0.9629    constr:    0.0000
     atom:   29    charge:    3.9995    magn:    0.9581    constr:    0.0000
     atom:   30    charge:    3.9716    magn:    0.9630    constr:    0.0000
     atom:   31    charge:    3.9714    magn:    0.9645    constr:    0.0000
     atom:   32    charge:    3.9966    magn:    0.9603    constr:    0.0000
     atom:   33    charge:    3.9990    magn:    0.9580    constr:    0.0000
     atom:   34    charge:    3.9711    magn:    0.9640    constr:    0.0000
     atom:   35    charge:    3.9710    magn:    0.9645    constr:    0.0000
     atom:   36    charge:    3.9944    magn:    0.9629    constr:    0.0000
     atom:   37    charge:    2.0499    magn:    0.8045    constr:    0.0000

     total cpu time spent up to now is      591.5 secs

     total energy              =   -3654.51238675 Ry
     Harris-Foulkes estimate   =   -3654.97985720 Ry
     estimated scf accuracy    <      20.34053136 Ry

     total magnetization       =    38.54 Bohr mag/cell
     absolute magnetization    =    38.85 Bohr mag/cell

     iteration #  5     ecut=    44.10 Ry     beta=0.10
     Davidson diagonalization with overlap
     ethr =  1.16E-03,  avg # of iterations =  1.1

     negative rho (up, down):  4.800E-04 2.879E-04
 
     Adding external electric field

     Computed dipole along edir(3) : 
        Dipole               -0.3388 Ry au,         -0.8611 Debye
        Dipole field         -0.0004 Ry au
 
        Potential amp.        0.0289 Ry
        Total length         34.5908 bohr
 
 
     Adding external electric field

     Computed dipole along edir(3) : 
        Dipole               -0.3388 Ry au,         -0.8611 Debye
        Dipole field         -0.0004 Ry au
 
        Potential amp.        0.0289 Ry
        Total length         34.5908 bohr
 
 
     Magnetic moment per site:
     atom:    1    charge:    3.9983    magn:    0.9228    constr:    0.0000
     atom:    2    charge:    3.9702    magn:    0.9246    constr:    0.0000
     atom:    3    charge:    3.9683    magn:    0.9342    constr:    0.0000
     atom:    4    charge:    3.9692    magn:    0.9622    constr:    0.0000
     atom:    5    charge:    3.9980    magn:    0.9212    constr:    0.0000
     atom:    6    charge:    3.9702    magn:    0.9246    constr:    0.0000
     atom:    7    charge:    3.9681    magn:    0.9295    constr:    0.0000
     atom:    8    charge:    3.9695    magn:    0.9618    constr:    0.0000
     atom:    9    charge:    3.9980    magn:    0.9212    constr:    0.0000
     atom:   10    charge:    3.9718    magn:    0.9275    constr:    0.0000
     atom:   11    charge:    3.9681    magn:    0.9296    constr:    0.0000
     atom:   12    charge:    3.9954    magn:    0.9279    constr:    0.0000
     atom:   13    charge:    3.9979    magn:    0.9214    constr:    0.0000
     atom:   14    charge:    3.9674    magn:    0.9295    constr:    0.0000
     atom:   15    charge:    3.9681    magn:    0.9296    constr:    0.0000
     atom:   16    charge:    3.9936    magn:    0.9258    constr:    0.0000
     atom:   17    charge:    3.9981    magn:    0.9230    constr:    0.0000
     atom:   18    charge:    3.9688    magn:    0.9290    constr:    0.0000
     atom:   19    charge:    3.9683    magn:    0.9344    constr:    0.0000
     atom:   20    charge:    3.9962    magn:    0.9247    constr:    0.0000
     atom:   21    charge:    3.9979    magn:    0.9213    constr:    0.0000
     atom:   22    charge:    3.9688    magn:    0.9290    constr:    0.0000
     atom:   23    charge:    3.9681    magn:    0.9296    constr:    0.0000
     atom:   24    charge:    3.9963    magn:    0.9247    constr:    0.0000
     atom:   25    charge:    3.9930    magn:    0.9261    constr:    0.0000
     atom:   26    charge:    3.9688    magn:    0.9290    constr:    0.0000
     atom:   27    charge:    3.9672    magn:    0.9313    constr:    0.0000
     atom:   28    charge:    3.9960    magn:    0.9248    constr:    0.0000
     atom:   29    charge:    3.9930    magn:    0.9261    constr:    0.0000
     atom:   30    charge:    3.9674    magn:    0.9295    constr:    0.0000
     atom:   31    charge:    3.9672    magn:    0.9313    constr:    0.0000
     atom:   32    charge:    3.9933    magn:    0.9261    constr:    0.0000
     atom:   33    charge:    3.9946    magn:    0.9242    constr:    0.0000
     atom:   34    charge:    3.9688    magn:    0.9290    constr:    0.0000
     atom:   35    charge:    3.9689    magn:    0.9294    constr:    0.0000
     atom:   36    charge:    3.9960    magn:    0.9248    constr:    0.0000
     atom:   37    charge:    2.0522    magn:    0.7684    constr:    0.0000

     total cpu time spent up to now is      700.9 secs

     total energy              =   -3654.90729620 Ry
     Harris-Foulkes estimate   =   -3654.83273276 Ry
     estimated scf accuracy    <       2.03269213 Ry

     total magnetization       =    38.66 Bohr mag/cell
     absolute magnetization    =    39.09 Bohr mag/cell

     iteration #  6     ecut=    44.10 Ry     beta=0.10
     Davidson diagonalization with overlap
     ethr =  5.55E-04,  avg # of iterations =  2.1

     negative rho (up, down):  4.717E-04 2.892E-04
 
     Adding external electric field

     Computed dipole along edir(3) : 
        Dipole               -0.7270 Ry au,         -1.8478 Debye
        Dipole field         -0.0009 Ry au
 
        Potential amp.        0.0619 Ry
        Total length         34.5908 bohr
 
 
     Adding external electric field

     Computed dipole along edir(3) : 
        Dipole               -0.7270 Ry au,         -1.8478 Debye
        Dipole field         -0.0009 Ry au
 
        Potential amp.        0.0619 Ry
        Total length         34.5908 bohr
 
 
     Magnetic moment per site:
     atom:    1    charge:    3.9907    magn:    0.8918    constr:    0.0000
     atom:    2    charge:    3.9682    magn:    0.8886    constr:    0.0000
     atom:    3    charge:    3.9693    magn:    0.8973    constr:    0.0000
     atom:    4    charge:    3.9713    magn:    0.9271    constr:    0.0000
     atom:    5    charge:    3.9911    magn:    0.8894    constr:    0.0000
     atom:    6    charge:    3.9682    magn:    0.8887    constr:    0.0000
     atom:    7    charge:    3.9675    magn:    0.8928    constr:    0.0000
     atom:    8    charge:    3.9717    magn:    0.9267    constr:    0.0000
     atom:    9    charge:    3.9911    magn:    0.8893    constr:    0.0000
     atom:   10    charge:    3.9686    magn:    0.8932    constr:    0.0000
     atom:   11    charge:    3.9675    magn:    0.8928    constr:    0.0000
     atom:   12    charge:    4.0004    magn:    0.8872    constr:    0.0000
     atom:   13    charge:    3.9911    magn:    0.8894    constr:    0.0000
     atom:   14    charge:    3.9650    magn:    0.8945    constr:    0.0000
     atom:   15    charge:    3.9674    magn:    0.8930    constr:    0.0000
     atom:   16    charge:    3.9942    magn:    0.8877    constr:    0.0000
     atom:   17    charge:    3.9907    magn:    0.8918    constr:    0.0000
     atom:   18    charge:    3.9653    magn:    0.8950    constr:    0.0000
     atom:   19    charge:    3.9691    magn:    0.8976    constr:    0.0000
     atom:   20    charge:    3.9957    magn:    0.8878    constr:    0.0000
     atom:   21    charge:    3.9911    magn:    0.8894    constr:    0.0000
     atom:   22    charge:    3.9653    magn:    0.8950    constr:    0.0000
     atom:   23    charge:    3.9674    magn:    0.8930    constr:    0.0000
     atom:   24    charge:    3.9957    magn:    0.8878    constr:    0.0000
     atom:   25    charge:    3.9908    magn:    0.8903    constr:    0.0000
     atom:   26    charge:    3.9654    magn:    0.8949    constr:    0.0000
     atom:   27    charge:    3.9661    magn:    0.8954    constr:    0.0000
     atom:   28    charge:    3.9958    magn:    0.8877    constr:    0.0000
     atom:   29    charge:    3.9909    magn:    0.8903    constr:    0.0000
     atom:   30    charge:    3.9650    magn:    0.8944    constr:    0.0000
     atom:   31    charge:    3.9661    magn:    0.8954    constr:    0.0000
     atom:   32    charge:    3.9942    magn:    0.8877    constr:    0.0000
     atom:   33    charge:    3.9909    magn:    0.8895    constr:    0.0000
     atom:   34    charge:    3.9654    magn:    0.8949    constr:    0.0000
     atom:   35    charge:    3.9663    magn:    0.8945    constr:    0.0000
     atom:   36    charge:    3.9958    magn:    0.8876    constr:    0.0000
     atom:   37    charge:    2.0537    magn:    0.7322    constr:    0.0000

     total cpu time spent up to now is      814.8 secs

     total energy              =   -3655.01203495 Ry
     Harris-Foulkes estimate   =   -3654.98640219 Ry
     estimated scf accuracy    <       3.34054666 Ry

     total magnetization       =    37.95 Bohr mag/cell
     absolute magnetization    =    38.60 Bohr mag/cell

     iteration #  7     ecut=    44.10 Ry     beta=0.10
     Davidson diagonalization with overlap
     ethr =  5.55E-04,  avg # of iterations =  1.8

     negative rho (up, down):  4.633E-04 2.894E-04
 
     Adding external electric field

     Computed dipole along edir(3) : 
        Dipole               -0.3490 Ry au,         -0.8870 Debye
        Dipole field         -0.0004 Ry au
 
        Potential amp.        0.0297 Ry
        Total length         34.5908 bohr
 
 
     Adding external electric field

     Computed dipole along edir(3) : 
        Dipole               -0.3490 Ry au,         -0.8870 Debye
        Dipole field         -0.0004 Ry au
 
        Potential amp.        0.0297 Ry
        Total length         34.5908 bohr
 
 
     Magnetic moment per site:
     atom:    1    charge:    3.9880    magn:    0.8517    constr:    0.0000
     atom:    2    charge:    3.9666    magn:    0.8474    constr:    0.0000
     atom:    3    charge:    3.9686    magn:    0.8572    constr:    0.0000
     atom:    4    charge:    3.9730    magn:    0.8882    constr:    0.0000
     atom:    5    charge:    3.9889    magn:    0.8487    constr:    0.0000
     atom:    6    charge:    3.9666    magn:    0.8475    constr:    0.0000
     atom:    7    charge:    3.9653    magn:    0.8529    constr:    0.0000
     atom:    8    charge:    3.9733    magn:    0.8878    constr:    0.0000
     atom:    9    charge:    3.9889    magn:    0.8487    constr:    0.0000
     atom:   10    charge:    3.9656    magn:    0.8539    constr:    0.0000
     atom:   11    charge:    3.9653    magn:    0.8529    constr:    0.0000
     atom:   12    charge:    3.9928    magn:    0.8527    constr:    0.0000
     atom:   13    charge:    3.9890    magn:    0.8486    constr:    0.0000
     atom:   14    charge:    3.9648    magn:    0.8530    constr:    0.0000
     atom:   15    charge:    3.9652    magn:    0.8531    constr:    0.0000
     atom:   16    charge:    3.9906    magn:    0.8486    constr:    0.0000
     atom:   17    charge:    3.9883    magn:    0.8515    constr:    0.0000
     atom:   18    charge:    3.9643    magn:    0.8542    constr:    0.0000
     atom:   19    charge:    3.9685    magn:    0.8575    constr:    0.0000
     atom:   20    charge:    3.9898    magn:    0.8509    constr:    0.0000
     atom:   21    charge:    3.9890    magn:    0.8486    constr:    0.0000
     atom:   22    charge:    3.9643    magn:    0.8542    constr:    0.0000
     atom:   23    charge:    3.9652    magn:    0.8531    constr:    0.0000
     atom:   24    charge:    3.9897    magn:    0.8509    constr:    0.0000
     atom:   25    charge:    3.9930    magn:    0.8459    constr:    0.0000
     atom:   26    charge:    3.9643    magn:    0.8542    constr:    0.0000
     atom:   27    charge:    3.9647    magn:    0.8553    constr:    0.0000
     atom:   28    charge:    3.9899    magn:    0.8507    constr:    0.0000
     atom:   29    charge:    3.9930    magn:    0.8459    constr:    0.0000
     atom:   30    charge:    3.9649    magn:    0.8529    constr:    0.0000
     atom:   31    charge:    3.9647    magn:    0.8553    constr:    0.0000
     atom:   32    charge:    3.9907    magn:    0.8485    constr:    0.0000
     atom:   33    charge:    3.9919    magn:    0.8459    constr:    0.0000
     atom:   34    charge:    3.9643    magn:    0.8542    constr:    0.0000
     atom:   35    charge:    3.9635    magn:    0.8553    constr:    0.0000
     atom:   36    charge:    3.9899    magn:    0.8507    constr:    0.0000
     atom:   37    charge:    2.0544    magn:    0.6915    constr:    0.0000

     total cpu time spent up to now is      928.1 secs

     total energy              =   -3655.10912223 Ry
     Harris-Foulkes estimate   =   -3655.15115164 Ry
     estimated scf accuracy    <       8.45459003 Ry

     total magnetization       =    37.10 Bohr mag/cell
     absolute magnetization    =    37.89 Bohr mag/cell

     iteration #  8     ecut=    44.10 Ry     beta=0.10
     Davidson diagonalization with overlap
     ethr =  5.55E-04,  avg # of iterations =  2.1

     negative rho (up, down):  4.558E-04 2.900E-04
 
     Adding external electric field

     Computed dipole along edir(3) : 
        Dipole               -0.4302 Ry au,         -1.0934 Debye
        Dipole field         -0.0005 Ry au
 
        Potential amp.        0.0366 Ry
        Total length         34.5908 bohr
 
 
     Adding external electric field

     Computed dipole along edir(3) : 
        Dipole               -0.4302 Ry au,         -1.0934 Debye
        Dipole field         -0.0005 Ry au
 
        Potential amp.        0.0366 Ry
        Total length         34.5908 bohr
 
 
     Magnetic moment per site:
     atom:    1    charge:    3.9886    magn:    0.8018    constr:    0.0000
     atom:    2    charge:    3.9632    magn:    0.7995    constr:    0.0000
     atom:    3    charge:    3.9673    magn:    0.8096    constr:    0.0000
     atom:    4    charge:    3.9754    magn:    0.8415    constr:    0.0000
     atom:    5    charge:    3.9889    magn:    0.7988    constr:    0.0000
     atom:    6    charge:    3.9632    magn:    0.7996    constr:    0.0000
     atom:    7    charge:    3.9648    magn:    0.8037    constr:    0.0000
     atom:    8    charge:    3.9756    magn:    0.8412    constr:    0.0000
     atom:    9    charge:    3.9889    magn:    0.7988    constr:    0.0000
     atom:   10    charge:    3.9632    magn:    0.8065    constr:    0.0000
     atom:   11    charge:    3.9648    magn:    0.8037    constr:    0.0000
     atom:   12    charge:    3.9841    magn:    0.8115    constr:    0.0000
     atom:   13    charge:    3.9889    magn:    0.7988    constr:    0.0000
     atom:   14    charge:    3.9641    magn:    0.8044    constr:    0.0000
     atom:   15    charge:    3.9650    magn:    0.8037    constr:    0.0000
     atom:   16    charge:    3.9909    magn:    0.7983    constr:    0.0000
     atom:   17    charge:    3.9885    magn:    0.8018    constr:    0.0000
     atom:   18    charge:    3.9645    magn:    0.8049    constr:    0.0000
     atom:   19    charge:    3.9676    magn:    0.8096    constr:    0.0000
     atom:   20    charge:    3.9903    magn:    0.8007    constr:    0.0000
     atom:   21    charge:    3.9890    magn:    0.7987    constr:    0.0000
     atom:   22    charge:    3.9646    magn:    0.8049    constr:    0.0000
     atom:   23    charge:    3.9650    magn:    0.8037    constr:    0.0000
     atom:   24    charge:    3.9903    magn:    0.8007    constr:    0.0000
     atom:   25    charge:    3.9846    magn:    0.8032    constr:    0.0000
     atom:   26    charge:    3.9644    magn:    0.8050    constr:    0.0000
     atom:   27    charge:    3.9652    magn:    0.8059    constr:    0.0000
     atom:   28    charge:    3.9900    magn:    0.8009    constr:    0.0000
     atom:   29    charge:    3.9846    magn:    0.8032    constr:    0.0000
     atom:   30    charge:    3.9640    magn:    0.8044    constr:    0.0000
     atom:   31    charge:    3.9652    magn:    0.8059    constr:    0.0000
     atom:   32    charge:    3.9907    magn:    0.7985    constr:    0.0000
     atom:   33    charge:    3.9861    magn:    0.8009    constr:    0.0000
     atom:   34    charge:    3.9644    magn:    0.8050    constr:    0.0000
     atom:   35    charge:    3.9655    magn:    0.8044    constr:    0.0000
     atom:   36    charge:    3.9900    magn:    0.8009    constr:    0.0000
     atom:   37    charge:    2.0541    magn:    0.6430    constr:    0.0000

     total cpu time spent up to now is     1042.2 secs

     total energy              =   -3655.31681673 Ry
     Harris-Foulkes estimate   =   -3655.22003912 Ry
     estimated scf accuracy    <       1.62517586 Ry

     total magnetization       =    36.18 Bohr mag/cell
     absolute magnetization    =    37.22 Bohr mag/cell

     iteration #  9     ecut=    44.10 Ry     beta=0.10
     Davidson diagonalization with overlap
     ethr =  4.44E-04,  avg # of iterations =  1.2

     negative rho (up, down):  4.779E-04 4.070E-04
 
     Adding external electric field

     Computed dipole along edir(3) : 
        Dipole               -0.3929 Ry au,         -0.9987 Debye
        Dipole field         -0.0005 Ry au
 
        Potential amp.        0.0335 Ry
        Total length         34.5908 bohr
 
 
     Adding external electric field

     Computed dipole along edir(3) : 
        Dipole               -0.3929 Ry au,         -0.9987 Debye
        Dipole field         -0.0005 Ry au
 
        Potential amp.        0.0335 Ry
        Total length         34.5908 bohr
 
 
     Magnetic moment per site:
     atom:    1    charge:    3.9858    magn:    0.6352    constr:    0.0000
     atom:    2    charge:    3.9585    magn:    0.6307    constr:    0.0000
     atom:    3    charge:    3.9636    magn:    0.6464    constr:    0.0000
     atom:    4    charge:    3.9764    magn:    0.6855    constr:    0.0000
     atom:    5    charge:    3.9862    magn:    0.6307    constr:    0.0000
     atom:    6    charge:    3.9586    magn:    0.6308    constr:    0.0000
     atom:    7    charge:    3.9682    magn:    0.6315    constr:    0.0000
     atom:    8    charge:    3.9763    magn:    0.6853    constr:    0.0000
     atom:    9    charge:    3.9862    magn:    0.6307    constr:    0.0000
     atom:   10    charge:    3.9669    magn:    0.6349    constr:    0.0000
     atom:   11    charge:    3.9681    magn:    0.6316    constr:    0.0000
     atom:   12    charge:    3.9928    magn:    0.6391    constr:    0.0000
     atom:   13    charge:    3.9852    magn:    0.6316    constr:    0.0000
     atom:   14    charge:    3.9644    magn:    0.6357    constr:    0.0000
     atom:   15    charge:    3.9675    magn:    0.6323    constr:    0.0000
     atom:   16    charge:    3.9839    magn:    0.6331    constr:    0.0000
     atom:   17    charge:    3.9845    magn:    0.6364    constr:    0.0000
     atom:   18    charge:    3.9649    magn:    0.6366    constr:    0.0000
     atom:   19    charge:    3.9629    magn:    0.6473    constr:    0.0000
     atom:   20    charge:    3.9873    magn:    0.6334    constr:    0.0000
     atom:   21    charge:    3.9852    magn:    0.6316    constr:    0.0000
     atom:   22    charge:    3.9649    magn:    0.6366    constr:    0.0000
     atom:   23    charge:    3.9676    magn:    0.6322    constr:    0.0000
     atom:   24    charge:    3.9873    magn:    0.6334    constr:    0.0000
     atom:   25    charge:    3.9829    magn:    0.6354    constr:    0.0000
     atom:   26    charge:    3.9658    magn:    0.6359    constr:    0.0000
     atom:   27    charge:    3.9648    magn:    0.6385    constr:    0.0000
     atom:   28    charge:    3.9886    magn:    0.6321    constr:    0.0000
     atom:   29    charge:    3.9829    magn:    0.6354    constr:    0.0000
     atom:   30    charge:    3.9652    magn:    0.6348    constr:    0.0000
     atom:   31    charge:    3.9648    magn:    0.6384    constr:    0.0000
     atom:   32    charge:    3.9854    magn:    0.6318    constr:    0.0000
     atom:   33    charge:    3.9836    magn:    0.6331    constr:    0.0000
     atom:   34    charge:    3.9658    magn:    0.6359    constr:    0.0000
     atom:   35    charge:    3.9677    magn:    0.6340    constr:    0.0000
     atom:   36    charge:    3.9887    magn:    0.6321    constr:    0.0000
     atom:   37    charge:    2.0492    magn:    0.4757    constr:    0.0000

     total cpu time spent up to now is     1152.3 secs

     total energy              =   -3655.65054132 Ry
     Harris-Foulkes estimate   =   -3655.35809852 Ry
     estimated scf accuracy    <       0.97769900 Ry

     total magnetization       =    35.23 Bohr mag/cell
     absolute magnetization    =    36.55 Bohr mag/cell

     iteration # 10     ecut=    44.10 Ry     beta=0.10
     Davidson diagonalization with overlap
     ethr =  2.67E-04,  avg # of iterations =  9.2

     negative rho (up, down):  5.039E-04 5.039E-04
 
     Adding external electric field

     Computed dipole along edir(3) : 
        Dipole               -0.4102 Ry au,         -1.0427 Debye
        Dipole field         -0.0005 Ry au
 
        Potential amp.        0.0349 Ry
        Total length         34.5908 bohr
 
 
     Adding external electric field

     Computed dipole along edir(3) : 
        Dipole               -0.4102 Ry au,         -1.0427 Debye
        Dipole field         -0.0005 Ry au
 
        Potential amp.        0.0349 Ry
        Total length         34.5908 bohr
 
 
     Magnetic moment per site:
     atom:    1    charge:    3.9843    magn:    0.5408    constr:    0.0000
     atom:    2    charge:    3.9632    magn:    0.5304    constr:    0.0000
     atom:    3    charge:    3.9682    magn:    0.5495    constr:    0.0000
     atom:    4    charge:    3.9756    magn:    0.5972    constr:    0.0000
     atom:    5    charge:    3.9816    magn:    0.5384    constr:    0.0000
     atom:    6    charge:    3.9633    magn:    0.5305    constr:    0.0000
     atom:    7    charge:    3.9664    magn:    0.5371    constr:    0.0000
     atom:    8    charge:    3.9757    magn:    0.5968    constr:    0.0000
     atom:    9    charge:    3.9816    magn:    0.5385    constr:    0.0000
     atom:   10    charge:    3.9659    magn:    0.5402    constr:    0.0000
     atom:   11    charge:    3.9664    magn:    0.5372    constr:    0.0000
     atom:   12    charge:    3.9892    magn:    0.5483    constr:    0.0000
     atom:   13    charge:    3.9840    magn:    0.5364    constr:    0.0000
     atom:   14    charge:    3.9655    magn:    0.5396    constr:    0.0000
     atom:   15    charge:    3.9685    magn:    0.5358    constr:    0.0000
     atom:   16    charge:    3.9857    magn:    0.5349    constr:    0.0000
     atom:   17    charge:    3.9865    magn:    0.5391    constr:    0.0000
     atom:   18    charge:    3.9663    magn:    0.5406    constr:    0.0000
     atom:   19    charge:    3.9697    magn:    0.5488    constr:    0.0000
     atom:   20    charge:    3.9887    magn:    0.5358    constr:    0.0000
     atom:   21    charge:    3.9840    magn:    0.5364    constr:    0.0000
     atom:   22    charge:    3.9663    magn:    0.5406    constr:    0.0000
     atom:   23    charge:    3.9685    magn:    0.5357    constr:    0.0000
     atom:   24    charge:    3.9887    magn:    0.5358    constr:    0.0000
     atom:   25    charge:    3.9828    magn:    0.5400    constr:    0.0000
     atom:   26    charge:    3.9643    magn:    0.5421    constr:    0.0000
     atom:   27    charge:    3.9653    magn:    0.5433    constr:    0.0000
     atom:   28    charge:    3.9863    magn:    0.5376    constr:    0.0000
     atom:   29    charge:    3.9829    magn:    0.5400    constr:    0.0000
     atom:   30    charge:    3.9635    magn:    0.5410    constr:    0.0000
     atom:   31    charge:    3.9654    magn:    0.5433    constr:    0.0000
     atom:   32    charge:    3.9839    magn:    0.5363    constr:    0.0000
     atom:   33    charge:    3.9824    magn:    0.5383    constr:    0.0000
     atom:   34    charge:    3.9643    magn:    0.5421    constr:    0.0000
     atom:   35    charge:    3.9659    magn:    0.5398    constr:    0.0000
     atom:   36    charge:    3.9863    magn:    0.5376    constr:    0.0000
     atom:   37    charge:    2.0432    magn:    0.3800    constr:    0.0000

     total cpu time spent up to now is     1304.9 secs

     total energy              =   -3655.76739961 Ry
     Harris-Foulkes estimate   =   -3655.72124648 Ry
     estimated scf accuracy    <       1.19770668 Ry

     total magnetization       =    31.29 Bohr mag/cell
     absolute magnetization    =    33.89 Bohr mag/cell

     iteration # 11     ecut=    44.10 Ry     beta=0.10
     Davidson diagonalization with overlap
     ethr =  2.67E-04,  avg # of iterations =  1.0

     negative rho (up, down):  4.952E-04 4.970E-04
 
     Adding external electric field

     Computed dipole along edir(3) : 
        Dipole               -0.4161 Ry au,         -1.0577 Debye
        Dipole field         -0.0005 Ry au
 
        Potential amp.        0.0354 Ry
        Total length         34.5908 bohr
 
 
     Adding external electric field

     Computed dipole along edir(3) : 
        Dipole               -0.4161 Ry au,         -1.0577 Debye
        Dipole field         -0.0005 Ry au
 
        Potential amp.        0.0354 Ry
        Total length         34.5908 bohr
 
 
     Magnetic moment per site:
     atom:    1    charge:    3.9849    magn:    0.5152    constr:    0.0000
     atom:    2    charge:    3.9651    magn:    0.5037    constr:    0.0000
     atom:    3    charge:    3.9712    magn:    0.5228    constr:    0.0000
     atom:    4    charge:    3.9749    magn:    0.5739    constr:    0.0000
     atom:    5    charge:    3.9829    magn:    0.5123    constr:    0.0000
     atom:    6    charge:    3.9651    magn:    0.5038    constr:    0.0000
     atom:    7    charge:    3.9674    magn:    0.5112    constr:    0.0000
     atom:    8    charge:    3.9751    magn:    0.5734    constr:    0.0000
     atom:    9    charge:    3.9829    magn:    0.5123    constr:    0.0000
     atom:   10    charge:    3.9661    magn:    0.5150    constr:    0.0000
     atom:   11    charge:    3.9674    magn:    0.5112    constr:    0.0000
     atom:   12    charge:    3.9877    magn:    0.5249    constr:    0.0000
     atom:   13    charge:    3.9826    magn:    0.5125    constr:    0.0000
     atom:   14    charge:    3.9651    magn:    0.5151    constr:    0.0000
     atom:   15    charge:    3.9672    magn:    0.5117    constr:    0.0000
     atom:   16    charge:    3.9851    magn:    0.5099    constr:    0.0000
     atom:   17    charge:    3.9839    magn:    0.5161    constr:    0.0000
     atom:   18    charge:    3.9654    magn:    0.5164    constr:    0.0000
     atom:   19    charge:    3.9707    magn:    0.5237    constr:    0.0000
     atom:   20    charge:    3.9868    magn:    0.5120    constr:    0.0000
     atom:   21    charge:    3.9826    magn:    0.5125    constr:    0.0000
     atom:   22    charge:    3.9654    magn:    0.5164    constr:    0.0000
     atom:   23    charge:    3.9672    magn:    0.5116    constr:    0.0000
     atom:   24    charge:    3.9868    magn:    0.5120    constr:    0.0000
     atom:   25    charge:    3.9827    magn:    0.5152    constr:    0.0000
     atom:   26    charge:    3.9657    magn:    0.5162    constr:    0.0000
     atom:   27    charge:    3.9661    magn:    0.5180    constr:    0.0000
     atom:   28    charge:    3.9871    magn:    0.5115    constr:    0.0000
     atom:   29    charge:    3.9827    magn:    0.5152    constr:    0.0000
     atom:   30    charge:    3.9653    magn:    0.5148    constr:    0.0000
     atom:   31    charge:    3.9661    magn:    0.5180    constr:    0.0000
     atom:   32    charge:    3.9856    magn:    0.5095    constr:    0.0000
     atom:   33    charge:    3.9823    magn:    0.5134    constr:    0.0000
     atom:   34    charge:    3.9657    magn:    0.5162    constr:    0.0000
     atom:   35    charge:    3.9659    magn:    0.5148    constr:    0.0000
     atom:   36    charge:    3.9871    magn:    0.5115    constr:    0.0000
     atom:   37    charge:    2.0401    magn:    0.3545    constr:    0.0000

     total cpu time spent up to now is     1414.5 secs

     total energy              =   -3655.80250122 Ry
     Harris-Foulkes estimate   =   -3655.82200517 Ry
     estimated scf accuracy    <       1.41267687 Ry

     total magnetization       =    28.42 Bohr mag/cell
     absolute magnetization    =    31.92 Bohr mag/cell

     iteration # 12     ecut=    44.10 Ry     beta=0.10
     Davidson diagonalization with overlap
     ethr =  2.67E-04,  avg # of iterations =  1.0

     negative rho (up, down):  4.698E-04 4.471E-04
 
     Adding external electric field

     Computed dipole along edir(3) : 
        Dipole               -0.4089 Ry au,         -1.0394 Debye
        Dipole field         -0.0005 Ry au
 
        Potential amp.        0.0348 Ry
        Total length         34.5908 bohr
 
 
     Adding external electric field

     Computed dipole along edir(3) : 
        Dipole               -0.4089 Ry au,         -1.0394 Debye
        Dipole field         -0.0005 Ry au
 
        Potential amp.        0.0348 Ry
        Total length         34.5908 bohr
 
 
     Magnetic moment per site:
     atom:    1    charge:    3.9775    magn:    0.5189    constr:    0.0000
     atom:    2    charge:    3.9673    magn:    0.5003    constr:    0.0000
     atom:    3    charge:    3.9719    magn:    0.5205    constr:    0.0000
     atom:    4    charge:    3.9713    magn:    0.5718    constr:    0.0000
     atom:    5    charge:    3.9840    magn:    0.5099    constr:    0.0000
     atom:    6    charge:    3.9672    magn:    0.5004    constr:    0.0000
     atom:    7    charge:    3.9674    magn:    0.5096    constr:    0.0000
     atom:    8    charge:    3.9716    magn:    0.5713    constr:    0.0000
     atom:    9    charge:    3.9840    magn:    0.5099    constr:    0.0000
     atom:   10    charge:    3.9682    magn:    0.5109    constr:    0.0000
     atom:   11    charge:    3.9675    magn:    0.5096    constr:    0.0000
     atom:   12    charge:    3.9871    magn:    0.5231    constr:    0.0000
     atom:   13    charge:    3.9837    magn:    0.5101    constr:    0.0000
     atom:   14    charge:    3.9682    magn:    0.5114    constr:    0.0000
     atom:   15    charge:    3.9675    magn:    0.5098    constr:    0.0000
     atom:   16    charge:    3.9853    magn:    0.5069    constr:    0.0000
     atom:   17    charge:    3.9791    magn:    0.5178    constr:    0.0000
     atom:   18    charge:    3.9671    magn:    0.5132    constr:    0.0000
     atom:   19    charge:    3.9734    magn:    0.5200    constr:    0.0000
     atom:   20    charge:    3.9839    magn:    0.5111    constr:    0.0000
     atom:   21    charge:    3.9838    magn:    0.5100    constr:    0.0000
     atom:   22    charge:    3.9671    magn:    0.5132    constr:    0.0000
     atom:   23    charge:    3.9674    magn:    0.5099    constr:    0.0000
     atom:   24    charge:    3.9838    magn:    0.5111    constr:    0.0000
     atom:   25    charge:    3.9812    magn:    0.5142    constr:    0.0000
     atom:   26    charge:    3.9671    magn:    0.5133    constr:    0.0000
     atom:   27    charge:    3.9678    magn:    0.5148    constr:    0.0000
     atom:   28    charge:    3.9834    magn:    0.5114    constr:    0.0000
     atom:   29    charge:    3.9812    magn:    0.5142    constr:    0.0000
     atom:   30    charge:    3.9685    magn:    0.5110    constr:    0.0000
     atom:   31    charge:    3.9678    magn:    0.5148    constr:    0.0000
     atom:   32    charge:    3.9845    magn:    0.5074    constr:    0.0000
     atom:   33    charge:    3.9825    magn:    0.5115    constr:    0.0000
     atom:   34    charge:    3.9671    magn:    0.5133    constr:    0.0000
     atom:   35    charge:    3.9676    magn:    0.5119    constr:    0.0000
     atom:   36    charge:    3.9834    magn:    0.5113    constr:    0.0000
     atom:   37    charge:    2.0303    magn:    0.3493    constr:    0.0000

     total cpu time spent up to now is     1523.9 secs

     total energy              =   -3655.79201206 Ry
     Harris-Foulkes estimate   =   -3655.82256953 Ry
     estimated scf accuracy    <       0.26833096 Ry

     total magnetization       =    27.69 Bohr mag/cell
     absolute magnetization    =    31.42 Bohr mag/cell

     iteration # 13     ecut=    44.10 Ry     beta=0.10
     Davidson diagonalization with overlap
     ethr =  7.33E-05,  avg # of iterations =  2.7

     negative rho (up, down):  4.778E-04 4.839E-04
 
     Adding external electric field

     Computed dipole along edir(3) : 
        Dipole               -0.4541 Ry au,         -1.1543 Debye
        Dipole field         -0.0006 Ry au
 
        Potential amp.        0.0387 Ry
        Total length         34.5908 bohr
 
 
     Adding external electric field

     Computed dipole along edir(3) : 
        Dipole               -0.4541 Ry au,         -1.1543 Debye
        Dipole field         -0.0006 Ry au
 
        Potential amp.        0.0387 Ry
        Total length         34.5908 bohr
 
 
     Magnetic moment per site:
     atom:    1    charge:    3.9818    magn:    0.4618    constr:    0.0000
     atom:    2    charge:    3.9696    magn:    0.4425    constr:    0.0000
     atom:    3    charge:    3.9746    magn:    0.4644    constr:    0.0000
     atom:    4    charge:    3.9720    magn:    0.5183    constr:    0.0000
     atom:    5    charge:    3.9825    magn:    0.4571    constr:    0.0000
     atom:    6    charge:    3.9695    magn:    0.4426    constr:    0.0000
     atom:    7    charge:    3.9696    magn:    0.4533    constr:    0.0000
     atom:    8    charge:    3.9722    magn:    0.5179    constr:    0.0000
     atom:    9    charge:    3.9825    magn:    0.4571    constr:    0.0000
     atom:   10    charge:    3.9698    magn:    0.4542    constr:    0.0000
     atom:   11    charge:    3.9696    magn:    0.4533    constr:    0.0000
     atom:   12    charge:    3.9870    magn:    0.4698    constr:    0.0000
     atom:   13    charge:    3.9824    magn:    0.4571    constr:    0.0000
     atom:   14    charge:    3.9703    magn:    0.4554    constr:    0.0000
     atom:   15    charge:    3.9696    magn:    0.4536    constr:    0.0000
     atom:   16    charge:    3.9812    magn:    0.4545    constr:    0.0000
     atom:   17    charge:    3.9825    magn:    0.4612    constr:    0.0000
     atom:   18    charge:    3.9709    magn:    0.4556    constr:    0.0000
     atom:   19    charge:    3.9751    magn:    0.4646    constr:    0.0000
     atom:   20    charge:    3.9836    magn:    0.4558    constr:    0.0000
     atom:   21    charge:    3.9825    magn:    0.4570    constr:    0.0000
     atom:   22    charge:    3.9709    magn:    0.4556    constr:    0.0000
     atom:   23    charge:    3.9696    magn:    0.4536    constr:    0.0000
     atom:   24    charge:    3.9836    magn:    0.4558    constr:    0.0000
     atom:   25    charge:    3.9828    magn:    0.4588    constr:    0.0000
     atom:   26    charge:    3.9711    magn:    0.4555    constr:    0.0000
     atom:   27    charge:    3.9698    magn:    0.4587    constr:    0.0000
     atom:   28    charge:    3.9837    magn:    0.4556    constr:    0.0000
     atom:   29    charge:    3.9828    magn:    0.4588    constr:    0.0000
     atom:   30    charge:    3.9703    magn:    0.4552    constr:    0.0000
     atom:   31    charge:    3.9698    magn:    0.4587    constr:    0.0000
     atom:   32    charge:    3.9815    magn:    0.4541    constr:    0.0000
     atom:   33    charge:    3.9837    magn:    0.4566    constr:    0.0000
     atom:   34    charge:    3.9711    magn:    0.4555    constr:    0.0000
     atom:   35    charge:    3.9715    magn:    0.4539    constr:    0.0000
     atom:   36    charge:    3.9837    magn:    0.4556    constr:    0.0000
     atom:   37    charge:    2.0207    magn:    0.2907    constr:    0.0000

     total cpu time spent up to now is     1641.6 secs

     total energy              =   -3655.80687308 Ry
     Harris-Foulkes estimate   =   -3655.81165070 Ry
     estimated scf accuracy    <       0.36100410 Ry

     total magnetization       =    27.42 Bohr mag/cell
     absolute magnetization    =    31.19 Bohr mag/cell

     iteration # 14     ecut=    44.10 Ry     beta=0.10
     Davidson diagonalization with overlap
     ethr =  7.33E-05,  avg # of iterations =  1.0

     negative rho (up, down):  4.630E-04 4.515E-04
 
     Adding external electric field

     Computed dipole along edir(3) : 
        Dipole               -0.4803 Ry au,         -1.2209 Debye
        Dipole field         -0.0006 Ry au
 
        Potential amp.        0.0409 Ry
        Total length         34.5908 bohr
 
 
     Adding external electric field

     Computed dipole along edir(3) : 
        Dipole               -0.4803 Ry au,         -1.2209 Debye
        Dipole field         -0.0006 Ry au
 
        Potential amp.        0.0409 Ry
        Total length         34.5908 bohr
 
 
     Magnetic moment per site:
     atom:    1    charge:    3.9860    magn:    0.4583    constr:    0.0000
     atom:    2    charge:    3.9705    magn:    0.4395    constr:    0.0000
     atom:    3    charge:    3.9737    magn:    0.4630    constr:    0.0000
     atom:    4    charge:    3.9716    magn:    0.5169    constr:    0.0000
     atom:    5    charge:    3.9833    magn:    0.4560    constr:    0.0000
     atom:    6    charge:    3.9706    magn:    0.4395    constr:    0.0000
     atom:    7    charge:    3.9715    magn:    0.4504    constr:    0.0000
     atom:    8    charge:    3.9718    magn:    0.5165    constr:    0.0000
     atom:    9    charge:    3.9834    magn:    0.4560    constr:    0.0000
     atom:   10    charge:    3.9723    magn:    0.4500    constr:    0.0000
     atom:   11    charge:    3.9715    magn:    0.4504    constr:    0.0000
     atom:   12    charge:    3.9861    magn:    0.4697    constr:    0.0000
     atom:   13    charge:    3.9835    magn:    0.4559    constr:    0.0000
     atom:   14    charge:    3.9722    magn:    0.4518    constr:    0.0000
     atom:   15    charge:    3.9718    magn:    0.4505    constr:    0.0000
     atom:   16    charge:    3.9845    magn:    0.4514    constr:    0.0000
     atom:   17    charge:    3.9844    magn:    0.4594    constr:    0.0000
     atom:   18    charge:    3.9712    magn:    0.4529    constr:    0.0000
     atom:   19    charge:    3.9732    magn:    0.4639    constr:    0.0000
     atom:   20    charge:    3.9847    magn:    0.4543    constr:    0.0000
     atom:   21    charge:    3.9834    magn:    0.4559    constr:    0.0000
     atom:   22    charge:    3.9712    magn:    0.4529    constr:    0.0000
     atom:   23    charge:    3.9718    magn:    0.4505    constr:    0.0000
     atom:   24    charge:    3.9847    magn:    0.4543    constr:    0.0000
     atom:   25    charge:    3.9853    magn:    0.4560    constr:    0.0000
     atom:   26    charge:    3.9711    magn:    0.4530    constr:    0.0000
     atom:   27    charge:    3.9718    magn:    0.4550    constr:    0.0000
     atom:   28    charge:    3.9843    magn:    0.4546    constr:    0.0000
     atom:   29    charge:    3.9853    magn:    0.4560    constr:    0.0000
     atom:   30    charge:    3.9719    magn:    0.4519    constr:    0.0000
     atom:   31    charge:    3.9718    magn:    0.4550    constr:    0.0000
     atom:   32    charge:    3.9843    magn:    0.4514    constr:    0.0000
     atom:   33    charge:    3.9822    magn:    0.4572    constr:    0.0000
     atom:   34    charge:    3.9711    magn:    0.4530    constr:    0.0000
     atom:   35    charge:    3.9701    magn:    0.4527    constr:    0.0000
     atom:   36    charge:    3.9843    magn:    0.4545    constr:    0.0000
     atom:   37    charge:    2.0228    magn:    0.2862    constr:    0.0000

     total cpu time spent up to now is     1751.2 secs

     total energy              =   -3655.81329299 Ry
     Harris-Foulkes estimate   =   -3655.82138765 Ry
     estimated scf accuracy    <       0.12038398 Ry

     total magnetization       =    26.05 Bohr mag/cell
     absolute magnetization    =    30.23 Bohr mag/cell

     iteration # 15     ecut=    44.10 Ry     beta=0.10
     Davidson diagonalization with overlap
     ethr =  3.29E-05,  avg # of iterations =  2.1

     negative rho (up, down):  4.558E-04 4.409E-04
 
     Adding external electric field

     Computed dipole along edir(3) : 
        Dipole               -0.4929 Ry au,         -1.2529 Debye
        Dipole field         -0.0006 Ry au
 
        Potential amp.        0.0420 Ry
        Total length         34.5908 bohr
 
 
     Adding external electric field

     Computed dipole along edir(3) : 
        Dipole               -0.4929 Ry au,         -1.2529 Debye
        Dipole field         -0.0006 Ry au
 
        Potential amp.        0.0420 Ry
        Total length         34.5908 bohr
 
 
     Magnetic moment per site:
     atom:    1    charge:    3.9831    magn:    0.4458    constr:    0.0000
     atom:    2    charge:    3.9720    magn:    0.4225    constr:    0.0000
     atom:    3    charge:    3.9755    magn:    0.4467    constr:    0.0000
     atom:    4    charge:    3.9722    magn:    0.5017    constr:    0.0000
     atom:    5    charge:    3.9839    magn:    0.4412    constr:    0.0000
     atom:    6    charge:    3.9720    magn:    0.4226    constr:    0.0000
     atom:    7    charge:    3.9723    magn:    0.4346    constr:    0.0000
     atom:    8    charge:    3.9724    magn:    0.5012    constr:    0.0000
     atom:    9    charge:    3.9839    magn:    0.4412    constr:    0.0000
     atom:   10    charge:    3.9729    magn:    0.4334    constr:    0.0000
     atom:   11    charge:    3.9723    magn:    0.4346    constr:    0.0000
     atom:   12    charge:    3.9856    magn:    0.4558    constr:    0.0000
     atom:   13    charge:    3.9839    magn:    0.4412    constr:    0.0000
     atom:   14    charge:    3.9723    magn:    0.4363    constr:    0.0000
     atom:   15    charge:    3.9722    magn:    0.4350    constr:    0.0000
     atom:   16    charge:    3.9830    magn:    0.4377    constr:    0.0000
     atom:   17    charge:    3.9838    magn:    0.4452    constr:    0.0000
     atom:   18    charge:    3.9724    magn:    0.4363    constr:    0.0000
     atom:   19    charge:    3.9757    magn:    0.4471    constr:    0.0000
     atom:   20    charge:    3.9839    magn:    0.4401    constr:    0.0000
     atom:   21    charge:    3.9839    magn:    0.4411    constr:    0.0000
     atom:   22    charge:    3.9724    magn:    0.4363    constr:    0.0000
     atom:   23    charge:    3.9722    magn:    0.4350    constr:    0.0000
     atom:   24    charge:    3.9839    magn:    0.4401    constr:    0.0000
     atom:   25    charge:    3.9841    magn:    0.4420    constr:    0.0000
     atom:   26    charge:    3.9723    magn:    0.4364    constr:    0.0000
     atom:   27    charge:    3.9721    magn:    0.4393    constr:    0.0000
     atom:   28    charge:    3.9841    magn:    0.4398    constr:    0.0000
     atom:   29    charge:    3.9841    magn:    0.4420    constr:    0.0000
     atom:   30    charge:    3.9726    magn:    0.4359    constr:    0.0000
     atom:   31    charge:    3.9721    magn:    0.4392    constr:    0.0000
     atom:   32    charge:    3.9833    magn:    0.4373    constr:    0.0000
     atom:   33    charge:    3.9845    magn:    0.4409    constr:    0.0000
     atom:   34    charge:    3.9723    magn:    0.4364    constr:    0.0000
     atom:   35    charge:    3.9719    magn:    0.4359    constr:    0.0000
     atom:   36    charge:    3.9841    magn:    0.4398    constr:    0.0000
     atom:   37    charge:    2.0206    magn:    0.2685    constr:    0.0000

     total cpu time spent up to now is     1865.3 secs

     total energy              =   -3655.81529070 Ry
     Harris-Foulkes estimate   =   -3655.82104347 Ry
     estimated scf accuracy    <       0.11855897 Ry

     total magnetization       =    26.11 Bohr mag/cell
     absolute magnetization    =    30.27 Bohr mag/cell

     iteration # 16     ecut=    44.10 Ry     beta=0.10
     Davidson diagonalization with overlap
     ethr =  3.24E-05,  avg # of iterations =  1.0

     negative rho (up, down):  4.436E-04 4.129E-04
 
     Adding external electric field

     Computed dipole along edir(3) : 
        Dipole               -0.4860 Ry au,         -1.2352 Debye
        Dipole field         -0.0006 Ry au
 
        Potential amp.        0.0414 Ry
        Total length         34.5908 bohr
 
 
     Adding external electric field

     Computed dipole along edir(3) : 
        Dipole               -0.4860 Ry au,         -1.2352 Debye
        Dipole field         -0.0006 Ry au
 
        Potential amp.        0.0414 Ry
        Total length         34.5908 bohr
 
 
     Magnetic moment per site:
     atom:    1    charge:    3.9835    magn:    0.4456    constr:    0.0000
     atom:    2    charge:    3.9721    magn:    0.4207    constr:    0.0000
     atom:    3    charge:    3.9754    magn:    0.4455    constr:    0.0000
     atom:    4    charge:    3.9704    magn:    0.5012    constr:    0.0000
     atom:    5    charge:    3.9838    magn:    0.4416    constr:    0.0000
     atom:    6    charge:    3.9721    magn:    0.4208    constr:    0.0000
     atom:    7    charge:    3.9723    magn:    0.4337    constr:    0.0000
     atom:    8    charge:    3.9706    magn:    0.5007    constr:    0.0000
     atom:    9    charge:    3.9838    magn:    0.4417    constr:    0.0000
     atom:   10    charge:    3.9728    magn:    0.4313    constr:    0.0000
     atom:   11    charge:    3.9723    magn:    0.4337    constr:    0.0000
     atom:   12    charge:    3.9852    magn:    0.4563    constr:    0.0000
     atom:   13    charge:    3.9836    magn:    0.4418    constr:    0.0000
     atom:   14    charge:    3.9732    magn:    0.4342    constr:    0.0000
     atom:   15    charge:    3.9724    magn:    0.4340    constr:    0.0000
     atom:   16    charge:    3.9836    magn:    0.4373    constr:    0.0000
     atom:   17    charge:    3.9833    magn:    0.4457    constr:    0.0000
     atom:   18    charge:    3.9732    magn:    0.4339    constr:    0.0000
     atom:   19    charge:    3.9757    magn:    0.4459    constr:    0.0000
     atom:   20    charge:    3.9845    magn:    0.4395    constr:    0.0000
     atom:   21    charge:    3.9836    magn:    0.4417    constr:    0.0000
     atom:   22    charge:    3.9732    magn:    0.4340    constr:    0.0000
     atom:   23    charge:    3.9724    magn:    0.4340    constr:    0.0000
     atom:   24    charge:    3.9845    magn:    0.4395    constr:    0.0000
     atom:   25    charge:    3.9843    magn:    0.4414    constr:    0.0000
     atom:   26    charge:    3.9732    magn:    0.4339    constr:    0.0000
     atom:   27    charge:    3.9733    magn:    0.4368    constr:    0.0000
     atom:   28    charge:    3.9843    magn:    0.4396    constr:    0.0000
     atom:   29    charge:    3.9843    magn:    0.4414    constr:    0.0000
     atom:   30    charge:    3.9733    magn:    0.4340    constr:    0.0000
     atom:   31    charge:    3.9733    magn:    0.4368    constr:    0.0000
     atom:   32    charge:    3.9832    magn:    0.4374    constr:    0.0000
     atom:   33    charge:    3.9846    magn:    0.4408    constr:    0.0000
     atom:   34    charge:    3.9732    magn:    0.4339    constr:    0.0000
     atom:   35    charge:    3.9735    magn:    0.4335    constr:    0.0000
     atom:   36    charge:    3.9843    magn:    0.4396    constr:    0.0000
     atom:   37    charge:    2.0191    magn:    0.2644    constr:    0.0000

     total cpu time spent up to now is     1974.5 secs

     total energy              =   -3655.81598630 Ry
     Harris-Foulkes estimate   =   -3655.81989517 Ry
     estimated scf accuracy    <       0.08063348 Ry

     total magnetization       =    25.67 Bohr mag/cell
     absolute magnetization    =    29.92 Bohr mag/cell

     iteration # 17     ecut=    44.10 Ry     beta=0.10
     Davidson diagonalization with overlap
     ethr =  2.20E-05,  avg # of iterations =  3.2

     negative rho (up, down):  4.348E-04 3.947E-04
 
     Adding external electric field

     Computed dipole along edir(3) : 
        Dipole               -0.4956 Ry au,         -1.2597 Debye
        Dipole field         -0.0006 Ry au
 
        Potential amp.        0.0422 Ry
        Total length         34.5908 bohr
 
 
     Adding external electric field

     Computed dipole along edir(3) : 
        Dipole               -0.4956 Ry au,         -1.2597 Debye
        Dipole field         -0.0006 Ry au
 
        Potential amp.        0.0422 Ry
        Total length         34.5908 bohr
 
 
     Magnetic moment per site:
     atom:    1    charge:    3.9844    magn:    0.4420    constr:    0.0000
     atom:    2    charge:    3.9719    magn:    0.4165    constr:    0.0000
     atom:    3    charge:    3.9754    magn:    0.4416    constr:    0.0000
     atom:    4    charge:    3.9718    magn:    0.4964    constr:    0.0000
     atom:    5    charge:    3.9845    magn:    0.4383    constr:    0.0000
     atom:    6    charge:    3.9719    magn:    0.4166    constr:    0.0000
     atom:    7    charge:    3.9723    magn:    0.4299    constr:    0.0000
     atom:    8    charge:    3.9720    magn:    0.4960    constr:    0.0000
     atom:    9    charge:    3.9845    magn:    0.4384    constr:    0.0000
     atom:   10    charge:    3.9725    magn:    0.4269    constr:    0.0000
     atom:   11    charge:    3.9723    magn:    0.4299    constr:    0.0000
     atom:   12    charge:    3.9860    magn:    0.4529    constr:    0.0000
     atom:   13    charge:    3.9845    magn:    0.4383    constr:    0.0000
     atom:   14    charge:    3.9734    magn:    0.4299    constr:    0.0000
     atom:   15    charge:    3.9724    magn:    0.4303    constr:    0.0000
     atom:   16    charge:    3.9842    magn:    0.4338    constr:    0.0000
     atom:   17    charge:    3.9843    magn:    0.4420    constr:    0.0000
     atom:   18    charge:    3.9730    magn:    0.4297    constr:    0.0000
     atom:   19    charge:    3.9757    magn:    0.4420    constr:    0.0000
     atom:   20    charge:    3.9845    magn:    0.4365    constr:    0.0000
     atom:   21    charge:    3.9845    magn:    0.4382    constr:    0.0000
     atom:   22    charge:    3.9730    magn:    0.4297    constr:    0.0000
     atom:   23    charge:    3.9724    magn:    0.4303    constr:    0.0000
     atom:   24    charge:    3.9845    magn:    0.4365    constr:    0.0000
     atom:   25    charge:    3.9851    magn:    0.4376    constr:    0.0000
     atom:   26    charge:    3.9730    magn:    0.4297    constr:    0.0000
     atom:   27    charge:    3.9730    magn:    0.4328    constr:    0.0000
     atom:   28    charge:    3.9846    magn:    0.4363    constr:    0.0000
     atom:   29    charge:    3.9851    magn:    0.4376    constr:    0.0000
     atom:   30    charge:    3.9733    magn:    0.4298    constr:    0.0000
     atom:   31    charge:    3.9730    magn:    0.4328    constr:    0.0000
     atom:   32    charge:    3.9842    magn:    0.4336    constr:    0.0000
     atom:   33    charge:    3.9846    magn:    0.4379    constr:    0.0000
     atom:   34    charge:    3.9730    magn:    0.4297    constr:    0.0000
     atom:   35    charge:    3.9730    magn:    0.4297    constr:    0.0000
     atom:   36    charge:    3.9846    magn:    0.4363    constr:    0.0000
     atom:   37    charge:    2.0186    magn:    0.2586    constr:    0.0000

     total cpu time spent up to now is     2093.3 secs

     total energy              =   -3655.81689207 Ry
     Harris-Foulkes estimate   =   -3655.81949969 Ry
     estimated scf accuracy    <       0.08022534 Ry

     total magnetization       =    25.69 Bohr mag/cell
     absolute magnetization    =    29.92 Bohr mag/cell

     iteration # 18     ecut=    44.10 Ry     beta=0.10
     Davidson diagonalization with overlap
     ethr =  2.19E-05,  avg # of iterations =  1.0

     negative rho (up, down):  4.280E-04 3.777E-04
 
     Adding external electric field

     Computed dipole along edir(3) : 
        Dipole               -0.4664 Ry au,         -1.1854 Debye
        Dipole field         -0.0006 Ry au
 
        Potential amp.        0.0397 Ry
        Total length         34.5908 bohr
 
 
     Adding external electric field

     Computed dipole along edir(3) : 
        Dipole               -0.4664 Ry au,         -1.1854 Debye
        Dipole field         -0.0006 Ry au
 
        Potential amp.        0.0397 Ry
        Total length         34.5908 bohr
 
 
     Magnetic moment per site:
     atom:    1    charge:    3.9852    magn:    0.4394    constr:    0.0000
     atom:    2    charge:    3.9724    magn:    0.4121    constr:    0.0000
     atom:    3    charge:    3.9750    magn:    0.4385    constr:    0.0000
     atom:    4    charge:    3.9712    magn:    0.4932    constr:    0.0000
     atom:    5    charge:    3.9852    magn:    0.4360    constr:    0.0000
     atom:    6    charge:    3.9724    magn:    0.4122    constr:    0.0000
     atom:    7    charge:    3.9725    magn:    0.4266    constr:    0.0000
     atom:    8    charge:    3.9714    magn:    0.4928    constr:    0.0000
     atom:    9    charge:    3.9852    magn:    0.4361    constr:    0.0000
     atom:   10    charge:    3.9733    magn:    0.4219    constr:    0.0000
     atom:   11    charge:    3.9725    magn:    0.4266    constr:    0.0000
     atom:   12    charge:    3.9858    magn:    0.4514    constr:    0.0000
     atom:   13    charge:    3.9850    magn:    0.4361    constr:    0.0000
     atom:   14    charge:    3.9731    magn:    0.4262    constr:    0.0000
     atom:   15    charge:    3.9725    magn:    0.4271    constr:    0.0000
     atom:   16    charge:    3.9845    magn:    0.4317    constr:    0.0000
     atom:   17    charge:    3.9851    magn:    0.4394    constr:    0.0000
[...]
     6.4711   6.5827   6.6149   6.6536   6.6821   6.7209   6.8011   7.0605
     7.0913   7.1332   7.1465   7.4960   7.5299   7.6068   7.7916   7.8196
     7.9083   7.9194   7.9529   8.1966   8.2592   8.2989   8.3912   8.4207
     8.5358   8.5506   8.7611   8.8491   8.8991   9.0305   9.0430   9.1067
     9.2181   9.4566   9.4744   9.5492   9.6280   9.7716   9.7803   9.8121
     9.8260   9.8451   9.8650

 ------ SPIN DOWN ----------


          k = 0.0000 0.0000 0.0000 ( 50455 PWs)   bands (ev):

   -17.6200  -7.4879  -6.2136  -6.1871  -5.1399  -5.0569  -4.7873  -4.5451
    -4.2771  -4.1986  -4.1681  -4.1506  -4.0065  -3.9067  -3.8125  -3.6483
    -3.4995  -3.3936  -3.3601  -3.3538  -3.2001  -3.0435  -2.9054  -2.8810
    -2.8800  -2.8786  -2.7992  -2.6653  -2.6534  -2.6409  -2.6147  -2.6001
    -2.5443  -2.5368  -2.5359  -2.5189  -2.4488  -2.4349  -2.4341  -2.3932
    -2.3798  -2.3757  -2.3741  -2.2619  -2.2599  -2.2008  -2.1805  -2.1049
    -2.0813  -2.0720  -2.0416  -2.0052  -1.9852  -1.9777  -1.9513  -1.9112
    -1.8559  -1.8374  -1.7499  -1.7149  -1.7031  -1.6889  -1.6403  -1.5695
    -1.5407  -1.5318  -1.5282  -1.4984  -1.4918  -1.4777  -1.4747  -1.4633
    -1.4588  -1.4323  -1.4302  -1.3868  -1.3787  -1.3030  -1.3013  -1.2954
    -1.2901  -1.2067  -1.1905  -1.1885  -1.1500  -1.1200  -1.1053  -1.1052
    -1.1027  -1.0975  -1.0624  -1.0481  -1.0291  -1.0287  -1.0244  -1.0106
    -1.0065  -0.9707  -0.9294  -0.9291  -0.9202  -0.8230  -0.7927  -0.7667
    -0.7664  -0.7632  -0.7599  -0.7472  -0.7355  -0.7275  -0.6945  -0.6878
    -0.6853  -0.6517  -0.6334  -0.5957  -0.5946  -0.5189  -0.5162  -0.5096
    -0.4886  -0.4736  -0.4731  -0.4520  -0.4269  -0.3752  -0.3721  -0.3499
    -0.3143  -0.2795  -0.2717  -0.2659  -0.2605  -0.2552  -0.2265  -0.1993
    -0.1638  -0.1580  -0.1398  -0.1155  -0.1041  -0.0979  -0.0567  -0.0432
    -0.0159  -0.0115  -0.0057  -0.0051   0.0094   0.0162   0.0212   0.0864
     0.1035   0.1053   0.1159   0.1194   0.1527   0.1553   0.1666   0.1960
     0.2126   0.2193   0.2336   0.2355   0.2368   0.2375   0.2671   0.3153
     0.3227   0.3295   0.3312   0.3359   0.3432   0.3443   0.3515   0.3544
     0.3614   0.3640   0.3665   0.3902   0.3949   0.3958   0.4070   0.4229
     0.4428   0.4601   0.4653   0.4966   0.4994   0.5213   0.5278   0.5808
     0.6259   0.6598   0.6750   0.7084   0.7957   0.8498   0.8547   1.0524
     1.1129   1.4861   1.5321   1.8637   1.8667   1.9538   2.3187   2.8226
     2.9029   2.9718   3.0054   3.1328   3.1453   3.1824   3.1863   3.2502
     3.5050   3.8502   4.2324   4.2504   4.2542   4.4350   4.5513   4.9487
     5.2127   5.2280   5.4963   5.4982   5.5445   5.6143   5.6375   5.6498
     5.7512   5.8173   6.0593   6.2025   6.2721   6.3183   6.6272   6.6407
     6.7062   6.7623   6.8150   6.9125   6.9693   7.3569   7.4543   7.5001
     7.6728   7.6772   7.8539   7.8741   7.8808   7.8942   7.9170   7.9802
     8.0171   8.0958   8.0972   8.1413   8.1811   8.2217   8.2321   8.5379
     8.6013   8.6230   8.6630   8.6949   8.7161   8.7249   8.8326   8.9054
     9.0241   9.1048   9.1075   9.1808   9.2881   9.2975   9.4581   9.5367
     9.5430   9.5576   9.5791

          k = 0.0000 0.0541 0.0000 ( 50496 PWs)   bands (ev):

   -17.6199  -7.0409  -6.6085  -6.1910  -5.7925  -5.0603  -4.5877  -4.4524
    -4.2837  -4.2262  -4.1401  -3.8808  -3.7858  -3.7147  -3.6344  -3.5640
    -3.4367  -3.4131  -3.3063  -3.2907  -3.2364  -3.1215  -3.1165  -3.0943
    -3.0615  -2.9834  -2.8148  -2.7768  -2.7745  -2.7063  -2.6874  -2.6786
    -2.6499  -2.6146  -2.5805  -2.4713  -2.4340  -2.4063  -2.3776  -2.3579
    -2.3210  -2.3053  -2.2791  -2.2246  -2.1979  -2.1805  -2.1609  -2.1283
    -2.0987  -2.0604  -1.9747  -1.9676  -1.9600  -1.9418  -1.9088  -1.8901
    -1.8302  -1.7818  -1.7656  -1.7612  -1.7352  -1.7248  -1.7010  -1.6813
    -1.6601  -1.6332  -1.6070  -1.5727  -1.4946  -1.4905  -1.4757  -1.4482
    -1.4465  -1.4270  -1.4073  -1.3875  -1.3786  -1.3567  -1.3224  -1.2844
    -1.2717  -1.2550  -1.2236  -1.2139  -1.2008  -1.1819  -1.1743  -1.1616
    -1.1423  -1.1125  -1.1024  -1.0886  -1.0671  -1.0504  -1.0303  -1.0161
    -0.9968  -0.9886  -0.9523  -0.9439  -0.9301  -0.8935  -0.8656  -0.8359
    -0.8014  -0.7783  -0.7539  -0.7349  -0.7098  -0.7023  -0.6866  -0.6744
    -0.6667  -0.6423  -0.6054  -0.5841  -0.5505  -0.5351  -0.5271  -0.5135
    -0.5072  -0.5019  -0.4815  -0.4619  -0.4459  -0.4368  -0.4156  -0.4112
    -0.3898  -0.3814  -0.3530  -0.3310  -0.3024  -0.2570  -0.2466  -0.2404
    -0.2200  -0.1990  -0.1744  -0.1619  -0.1072  -0.0902  -0.0699  -0.0486
    -0.0307  -0.0121   0.0030   0.0206   0.0251   0.0579   0.0718   0.0852
     0.0980   0.1107   0.1160   0.1326   0.1544   0.1640   0.1976   0.2112
     0.2328   0.2392   0.2479   0.2541   0.2729   0.2750   0.2879   0.2918
     0.3020   0.3098   0.3211   0.3264   0.3467   0.3573   0.3837   0.4190
     0.4305   0.4574   0.4606   0.4804   0.4942   0.5044   0.5110   0.5409
     0.5589   0.5629   0.5747   0.5845   0.5894   0.6006   0.6133   0.6333
     0.6693   0.7679   0.9116   1.0914   1.1483   1.2014   1.2129   1.2630
     1.4511   1.6306   1.8342   1.9064   1.9834   2.0054   2.2304   2.5018
     2.6402   2.6603   2.8492   2.9649   3.0867   3.1955   3.5277   3.6077
     3.7287   3.7578   3.9192   4.1294   4.1864   4.3622   4.4272   4.6650
     4.6910   4.7374   4.9489   5.1762   5.1888   5.4626   5.5445   5.6121
     5.8424   5.9237   5.9849   6.0089   6.1339   6.4000   6.4616   6.5014
     6.5205   6.6303   6.7352   6.8010   6.8762   7.0012   7.0401   7.1268
     7.2514   7.2879   7.3704   7.5497   7.5663   7.7435   7.8005   7.9431
     8.0247   8.0541   8.1322   8.1743   8.1885   8.3797   8.4180   8.4336
     8.6583   8.8978   8.9078   8.9301   8.9858   9.0010   9.0502   9.1494
     9.1850   9.2304   9.2715   9.3262   9.3707   9.4490   9.5165   9.5360
     9.5623   9.6338   9.7038

          k = 0.0255 0.0180 0.0000 ( 50428 PWs)   bands (ev):

   -17.6200  -7.3393  -6.8982  -5.3135  -5.0494  -4.9461  -4.7308  -4.7002
    -4.6290  -4.4588  -4.3823  -4.2413  -3.9875  -3.6983  -3.5914  -3.5197
    -3.3925  -3.3078  -3.3029  -3.2812  -3.2445  -3.1663  -3.1512  -3.1194
    -3.0355  -2.9841  -2.7783  -2.6411  -2.6244  -2.5867  -2.5764  -2.5736
    -2.5166  -2.4977  -2.4973  -2.4762  -2.4745  -2.3962  -2.3851  -2.3592
    -2.3134  -2.3053  -2.2223  -2.2156  -2.2029  -2.1966  -2.1752  -2.1729
    -2.1104  -2.0819  -2.0674  -2.0629  -1.9958  -1.9778  -1.9627  -1.9044
    -1.8808  -1.8638  -1.8566  -1.8426  -1.7158  -1.6762  -1.6509  -1.6012
    -1.5827  -1.5488  -1.5368  -1.5190  -1.5102  -1.4793  -1.4781  -1.4447
    -1.4046  -1.4023  -1.3862  -1.3685  -1.3537  -1.3395  -1.3302  -1.3263
    -1.3099  -1.2761  -1.2729  -1.1408  -1.0898  -1.0745  -1.0607  -1.0506
    -1.0342  -1.0272  -1.0256  -1.0086  -0.9931  -0.9892  -0.9869  -0.9675
    -0.9662  -0.9495  -0.9234  -0.9219  -0.9104  -0.8970  -0.8714  -0.8657
    -0.8115  -0.8070  -0.7971  -0.7643  -0.7553  -0.7087  -0.6982  -0.6767
    -0.6755  -0.6241  -0.6167  -0.5981  -0.5753  -0.5403  -0.5244  -0.4786
    -0.4737  -0.4666  -0.4552  -0.4479  -0.4458  -0.4039  -0.3896  -0.3708
    -0.3593  -0.3241  -0.3169  -0.3007  -0.2721  -0.2712  -0.2481  -0.2087
    -0.1959  -0.1934  -0.1482  -0.1401  -0.1283  -0.0979  -0.0280  -0.0192
    -0.0051   0.0015   0.0100   0.0452   0.0485   0.0602   0.0663   0.0713
     0.0987   0.1101   0.1151   0.1377   0.1478   0.1566   0.1777   0.1852
     0.2073   0.2216   0.2357   0.2522   0.2614   0.2764   0.2811   0.2923
     0.3039   0.3107   0.3127   0.3158   0.3279   0.3294   0.3394   0.3482
     0.3667   0.3725   0.3871   0.3887   0.4250   0.4341   0.4543   0.4859
     0.4913   0.5117   0.5460   0.5726   0.5733   0.5986   0.6121   0.6236
     0.6408   0.6757   0.6861   0.7609   0.7840   0.8525   0.9014   0.9866
     1.1225   1.2654   1.3059   1.5116   1.6805   2.0133   2.1290   2.4711
     2.8912   2.9236   3.0047   3.0969   3.1820   3.3167   3.4606   3.6053
     3.6920   3.8094   4.0152   4.3849   4.4622   4.5801   4.5971   4.8412
     4.9622   5.2565   5.3336   5.4322   5.5868   5.6281   5.6758   5.9763
     6.1167   6.1564   6.2178   6.2399   6.2797   6.2931   6.5880   6.6790
     6.6958   6.9395   6.9411   7.1386   7.1966   7.2711   7.3345   7.3365
     7.4397   7.4796   7.5823   7.6054   7.6177   7.7385   7.8209   7.8439
     7.8880   7.9174   8.0714   8.1409   8.1498   8.2491   8.3610   8.3938
     8.4272   8.4500   8.5656   8.5695   8.6648   8.7813   8.7848   8.8468
     8.9195   8.9352   9.0815   9.1485   9.1517   9.2635   9.2776   9.3316
     9.3934   9.5261   9.5770

          k = 0.0255 0.0721 0.0000 ( 50496 PWs)   bands (ev):

   -17.6199  -7.0409  -6.6085  -6.1910  -5.7925  -5.0603  -4.5877  -4.4524
    -4.2837  -4.2262  -4.1401  -3.8808  -3.7858  -3.7147  -3.6344  -3.5640
    -3.4367  -3.4131  -3.3063  -3.2907  -3.2364  -3.1215  -3.1165  -3.0943
    -3.0615  -2.9834  -2.8148  -2.7768  -2.7744  -2.7063  -2.6874  -2.6786
    -2.6499  -2.6146  -2.5805  -2.4713  -2.4340  -2.4063  -2.3776  -2.3579
    -2.3210  -2.3053  -2.2791  -2.2246  -2.1979  -2.1805  -2.1609  -2.1283
    -2.0987  -2.0604  -1.9747  -1.9676  -1.9600  -1.9418  -1.9088  -1.8901
    -1.8302  -1.7818  -1.7656  -1.7612  -1.7352  -1.7248  -1.7010  -1.6813
    -1.6601  -1.6332  -1.6070  -1.5727  -1.4946  -1.4905  -1.4757  -1.4482
    -1.4465  -1.4270  -1.4073  -1.3875  -1.3786  -1.3567  -1.3224  -1.2844
    -1.2717  -1.2550  -1.2236  -1.2139  -1.2008  -1.1820  -1.1743  -1.1616
    -1.1423  -1.1125  -1.1024  -1.0886  -1.0671  -1.0504  -1.0303  -1.0161
    -0.9968  -0.9886  -0.9523  -0.9439  -0.9301  -0.8935  -0.8656  -0.8359
    -0.8014  -0.7783  -0.7539  -0.7349  -0.7098  -0.7023  -0.6866  -0.6744
    -0.6667  -0.6423  -0.6054  -0.5841  -0.5505  -0.5351  -0.5271  -0.5135
    -0.5072  -0.5019  -0.4815  -0.4619  -0.4459  -0.4368  -0.4156  -0.4112
    -0.3898  -0.3814  -0.3530  -0.3310  -0.3024  -0.2570  -0.2466  -0.2404
    -0.2200  -0.1990  -0.1744  -0.1619  -0.1072  -0.0902  -0.0699  -0.0486
    -0.0307  -0.0121   0.0030   0.0206   0.0251   0.0579   0.0718   0.0852
     0.0980   0.1107   0.1160   0.1326   0.1544   0.1640   0.1976   0.2112
     0.2328   0.2392   0.2479   0.2541   0.2729   0.2750   0.2879   0.2918
     0.3020   0.3098   0.3211   0.3264   0.3467   0.3573   0.3837   0.4190
     0.4305   0.4574   0.4606   0.4804   0.4942   0.5044   0.5110   0.5409
     0.5589   0.5629   0.5747   0.5845   0.5894   0.6006   0.6133   0.6333
     0.6693   0.7679   0.9116   1.0914   1.1483   1.2014   1.2129   1.2630
     1.4511   1.6306   1.8342   1.9064   1.9834   2.0054   2.2304   2.5018
     2.6402   2.6603   2.8492   2.9649   3.0867   3.1955   3.5277   3.6077
     3.7287   3.7578   3.9192   4.1294   4.1864   4.3622   4.4272   4.6650
     4.6910   4.7374   4.9489   5.1762   5.1889   5.4626   5.5445   5.6121
     5.8424   5.9237   5.9849   6.0089   6.1339   6.4000   6.4616   6.5014
     6.5205   6.6303   6.7352   6.8010   6.8762   7.0012   7.0402   7.1268
     7.2514   7.2879   7.3704   7.5497   7.5663   7.7435   7.8005   7.9431
     8.0247   8.0541   8.1322   8.1743   8.1886   8.3797   8.4180   8.4336
     8.6583   8.8978   8.9079   8.9301   8.9859   9.0009   9.0502   9.1494
     9.1850   9.2304   9.2715   9.3263   9.3707   9.4490   9.5165   9.5360
     9.5622   9.6338   9.7038

          k = 0.0255-0.0361 0.0000 ( 50488 PWs)   bands (ev):

   -17.6199  -7.1873  -6.3297  -5.9320  -5.9145  -5.1866  -5.1597  -4.5877
    -4.3850  -4.1488  -3.8694  -3.7871  -3.7549  -3.6036  -3.5447  -3.4391
    -3.4179  -3.3697  -3.3185  -3.3148  -3.1307  -3.0783  -3.0450  -3.0321
    -3.0214  -2.9596  -2.9389  -2.8537  -2.7728  -2.7468  -2.6907  -2.6852
    -2.6536  -2.6303  -2.5541  -2.5510  -2.5054  -2.4830  -2.4662  -2.4425
    -2.2967  -2.2548  -2.2206  -2.1906  -2.1833  -2.1516  -2.1423  -2.1205
    -2.1122  -2.0946  -2.0697  -2.0664  -2.0276  -1.9755  -1.9642  -1.8168
    -1.7930  -1.7709  -1.7206  -1.7089  -1.6330  -1.6267  -1.6248  -1.6148
    -1.5602  -1.5496  -1.5484  -1.5304  -1.5293  -1.5053  -1.5022  -1.4994
    -1.4884  -1.4770  -1.4739  -1.4467  -1.4461  -1.3839  -1.3715  -1.2701
    -1.2646  -1.2433  -1.2201  -1.1821  -1.1672  -1.1576  -1.1552  -1.1512
    -1.1204  -1.1000  -1.0751  -1.0734  -1.0483  -1.0412  -1.0232  -1.0221
    -1.0059  -0.9637  -0.9361  -0.9224  -0.9150  -0.9070  -0.8867  -0.8667
    -0.8514  -0.8177  -0.8170  -0.8063  -0.7922  -0.7538  -0.7535  -0.7377
    -0.6717  -0.6645  -0.6612  -0.6465  -0.5810  -0.5722  -0.5312  -0.5222
    -0.5168  -0.4977  -0.4895  -0.4847  -0.4427  -0.4418  -0.3927  -0.3831
    -0.3605  -0.3571  -0.3444  -0.2856  -0.2740  -0.2562  -0.2487  -0.2120
    -0.2100  -0.1710  -0.1410  -0.1116  -0.0941  -0.0872  -0.0371  -0.0186
    -0.0009  -0.0007   0.0117   0.0331   0.0448   0.0519   0.0624   0.0770
     0.0925   0.1030   0.1124   0.1279   0.1486   0.1505   0.1879   0.1944
     0.2168   0.2198   0.2277   0.2317   0.2568   0.2847   0.2997   0.3108
     0.3151   0.3235   0.3419   0.3557   0.3699   0.3700   0.3721   0.3851
     0.3982   0.4070   0.4288   0.4335   0.4783   0.4845   0.5254   0.5587
     0.5595   0.5669   0.5764   0.5845   0.5879   0.6167   0.6517   0.6778
     0.7296   0.7984   1.0764   1.0891   1.1211   1.1509   1.2367   1.3580
     1.4334   1.5044   1.7309   1.8850   1.9569   2.2016   2.3010   2.3239
     2.6918   2.8609   2.9972   3.0096   3.2290   3.3154   3.3297   3.4423
     3.4881   3.5123   3.7317   3.9443   4.1915   4.2619   4.2782   4.5387
     4.6370   5.0695   5.0939   5.1530   5.2472   5.4027   5.5250   5.7860
     5.7891   5.8451   6.0451   6.1443   6.3200   6.3870   6.6097   6.6381
     6.6605   6.7012   6.7521   6.7621   6.7695   6.8657   6.9402   7.0910
     7.1211   7.1815   7.3153   7.5695   7.6247   7.6805   7.9403   7.9630
     7.9981   8.0030   8.1144   8.2438   8.3094   8.3628   8.4468   8.5444
     8.7043   8.7085   8.7812   8.9343   8.9712   9.0777   9.1062   9.1873
     9.2760   9.5389   9.5936   9.6025   9.6516   9.8184   9.8250   9.8570
     9.8919   9.9277   9.9338

     the Fermi energy is     0.3350 ev

!    total energy              =   -3655.84956956 Ry
     Harris-Foulkes estimate   =   -3655.84957248 Ry
     estimated scf accuracy    <       0.00000067 Ry

     The total energy is the sum of the following terms:

     one-electron contribution =  -18992.98920056 Ry
     hartree contribution      =    9874.82296393 Ry
     xc contribution           =   -1513.73688403 Ry
     ewald contribution        =    6976.23812142 Ry
     electric field correction =       0.00019067 Ry
     smearing contrib. (-TS)   =      -0.18476098 Ry

     total magnetization       =    24.97 Bohr mag/cell
     absolute magnetization    =    28.59 Bohr mag/cell

     convergence has been achieved in   6 iterations

     Forces acting on atoms (Ry/au):


     negative rho (up, down):  4.389E-04 3.321E-04
     atom    1 type  1   force =    -0.00007283    0.00000506    0.01523064
     atom    2 type  1   force =    -0.00002551   -0.00054891   -0.01286598
     atom    3 type  1   force =    -0.00052126   -0.00010872   -0.00009398
     atom    4 type  1   force =    -0.00002835   -0.00038950   -0.00079896
     atom    5 type  1   force =     0.00027936   -0.00032145    0.01958219
     atom    6 type  1   force =    -0.00059363    0.00025826   -0.01282958
     atom    7 type  1   force =    -0.00024939   -0.00017744   -0.00015459
     atom    8 type  1   force =    -0.00023609   -0.00009052   -0.00026429
     atom    9 type  1   force =    -0.00025873    0.00029707    0.01950975
     atom   10 type  1   force =    -0.00018939   -0.00032926   -0.01925054
     atom   11 type  1   force =    -0.00030320   -0.00042682   -0.00005741
     atom   12 type  1   force =    -0.00008914   -0.00022026   -0.00012712
     atom   13 type  1   force =    -0.00036512    0.00020410    0.01933284
     atom   14 type  1   force =    -0.00023593   -0.00012376   -0.01913921
     atom   15 type  1   force =     0.00027641   -0.00001845    0.00006270
     atom   16 type  1   force =     0.00009667    0.00018855    0.00003803
     atom   17 type  1   force =    -0.00018706   -0.00007619    0.01500805
     atom   18 type  1   force =     0.00170120   -0.00089579   -0.02002154
     atom   19 type  1   force =     0.00002553    0.00027748    0.00002975
     atom   20 type  1   force =     0.00032310   -0.00001230    0.00006512
     atom   21 type  1   force =     0.00002268   -0.00049281    0.01939847
     atom   22 type  1   force =    -0.00037136    0.00177349   -0.02004362
     atom   23 type  1   force =     0.00001362    0.00000676   -0.00004391
     atom   24 type  1   force =    -0.00000884    0.00010087    0.00009252
     atom   25 type  1   force =     0.00042276   -0.00014719    0.01901026
     atom   26 type  1   force =    -0.00113561    0.00119998   -0.01993823
     atom   27 type  1   force =     0.00017022    0.00023902    0.00006153
     atom   28 type  1   force =     0.00009469    0.00016357   -0.00005870
     atom   29 type  1   force =    -0.00003292    0.00049823    0.01906133
     atom   30 type  1   force =     0.00054261    0.00042627   -0.01908767
     atom   31 type  1   force =     0.00017938    0.00022628    0.00008623
     atom   32 type  1   force =    -0.00003306    0.00009397   -0.00011866
     atom   33 type  1   force =     0.00024900    0.00010502    0.01899650
     atom   34 type  1   force =     0.00066116   -0.00159916   -0.01992600
     atom   35 type  1   force =     0.00033853    0.00001602    0.00002973
     atom   36 type  1   force =     0.00007740   -0.00017315   -0.00008926
     atom   37 type  2   force =    -0.00053689    0.00007168   -0.00068639

     Total force =     0.078129     Total SCF correction =     0.003654
 !ASE

     Writing output data file calc.save
 
     init_run     :     44.34s CPU     52.17s WALL (       1 calls)
     electrons    :  36255.20s CPU  42284.31s WALL (      13 calls)
     update_pot   :     46.00s CPU     49.05s WALL (      12 calls)
     forces       :    903.81s CPU    937.99s WALL (      13 calls)

     Called by init_run:
     wfcinit      :     27.07s CPU     33.51s WALL (       1 calls)
     potinit      :      1.52s CPU      1.65s WALL (       1 calls)

     Called by electrons:
     c_bands      :  21974.13s CPU  26518.01s WALL (     364 calls)
     sum_band     :   9653.54s CPU  10830.09s WALL (     364 calls)
     v_of_rho     :    218.53s CPU    260.13s WALL (     377 calls)
     newd         :   4502.36s CPU   4763.95s WALL (     377 calls)
     mix_rho      :     43.45s CPU     53.70s WALL (     364 calls)

     Called by c_bands:
     init_us_2    :    119.14s CPU    126.90s WALL (    7420 calls)
     cegterg      :  21280.80s CPU  25796.83s WALL (    3640 calls)

     Called by *egterg:
     h_psi        :  12656.83s CPU  16371.65s WALL (    8732 calls)
     s_psi        :   1776.61s CPU   1840.22s WALL (    8732 calls)
     g_psi        :     44.68s CPU     45.79s WALL (    5082 calls)
     cdiaghg      :   2184.39s CPU   2243.62s WALL (    8602 calls)

     Called by h_psi:
     add_vuspsi   :   1799.09s CPU   1857.62s WALL (    8732 calls)

     General routines
     calbec       :   2720.88s CPU   2791.88s WALL (   12502 calls)
     fft          :    198.46s CPU    240.78s WALL (   11804 calls)
     ffts         :      2.66s CPU      3.88s WALL (    1482 calls)
     fftw         :   6652.18s CPU  10970.13s WALL ( 5398616 calls)
     interpolate  :     26.00s CPU     37.66s WALL (    1482 calls)
     davcio       :      0.03s CPU      0.79s WALL (      10 calls)
 
     Parallel routines
     fft_scatter  :   3605.23s CPU   6421.91s WALL ( 5411902 calls)
 
     PWSCF        :    10h23m CPU       12h 4m WALL

 
   This run was terminated on:   5:57:18  24Feb2018            

=------------------------------------------------------------------------------=
   JOB DONE.
=------------------------------------------------------------------------------=
