  python dir          : /home/vossj/suncat/lib/python2.7/site-packages/espresso
  espresso dir        : /home/vossj/suncat/esdld/espresso-dynpy-beef/bin
  pseudo dir          : /home/vossj/suncat/esdld/psp
  ase-espresso py git : ffa2778-git


--------------------------------------------------------------------------
WARNING: It appears that your OpenFabrics subsystem is configured to only
allow registering part of your physical memory.  This can cause MPI jobs to
run with erratic performance, hang, and/or crash.

This may be caused by your OpenFabrics vendor limiting the amount of
physical memory that can be registered.  You should investigate the
relevant Linux kernel module parameters that control how much physical
memory can be registered, and increase them to allow registering all
physical memory on your machine.

See this Open MPI FAQ item for more information on these Linux kernel module
parameters:

    http://www.open-mpi.org/faq/?category=openfabrics#ib-locked-pages

  Local host:              sherlock-ln03
  Registerable memory:     16384 MiB
  Total memory:            65314 MiB

Your MPI job will continue, but may be behave poorly and/or hang.
--------------------------------------------------------------------------

     Program PWSCF v.5.1rc2 (svn rev. ) starts on 10Mar2017 at 11:22:47 

     This program is part of the open-source Quantum ESPRESSO suite
     for quantum simulation of materials; please cite
         "P. Giannozzi et al., J. Phys.:Condens. Matter 21 395502 (2009);
          URL http://www.quantum-espresso.org", 
     in publications or presentations arising from this work. More details at
     http://www.quantum-espresso.org/quote

     Parallel version (MPI), running on     1 processors
     Reading input from pw.inp
     Message from routine read_cards :
     DEPRECATED: no units specified in CELL_PARAMETERS card

     Current dimensions of program PWSCF are:
     Max number of different atomic species (ntypx) = 10
     Max number of k-points (npk) =  40000
     Max angular momentum in pseudopotentials (lmaxx) =  3

     IMPORTANT: XC functional enforced from input :
     Exchange-correlation      = RPBE ( 1  4 28  4 0)
     Any further DFT definition will be discarded
     Please, verify this is what you really want

               file Ni.UPF: wavefunction(s)  3D renormalized

     Subspace diagonalization in iterative solution of the eigenvalue problem:
     a serial algorithm will be used

 
     G-vector sticks info
     --------------------
     sticks:   dense  smooth     PW     G-vecs:    dense   smooth      PW
     Sum         685     271     85                11935     2975     537
 
     Generating pointlists ...
     new r_m :   0.4125 (alat units)  0.7795 (a.u.) for type    1


     bravais-lattice index     =            0
     lattice parameter (alat)  =       1.8897  a.u.
     unit-cell volume          =      76.0003 (a.u.)^3
     number of atoms/cell      =            1
     number of atomic types    =            1
     number of electrons       =        10.00
     number of Kohn-Sham states=           15
     kinetic-energy cutoff     =      44.0992  Ry
     charge density cutoff     =     440.9919  Ry
     convergence threshold     =      7.3E-07
     mixing beta               =       0.1000
     number of iterations used =           10  plain     mixing
     Exchange-correlation      = RPBE ( 1  4 28  4 0)
     nstep                     =           50


     celldm(1)=   1.889726  celldm(2)=   0.000000  celldm(3)=   0.000000
     celldm(4)=   0.000000  celldm(5)=   0.000000  celldm(6)=   0.000000

     crystal axes: (cart. coord. in units of alat)
               a(1) = (   0.000000   1.779083   1.779083 )  
               a(2) = (   1.779083   0.000000   1.779083 )  
               a(3) = (   1.779083   1.779083   0.000000 )  

     reciprocal axes: (cart. coord. in units 2 pi/alat)
               b(1) = ( -0.281044  0.281044  0.281044 )  
               b(2) = (  0.281044 -0.281044  0.281044 )  
               b(3) = (  0.281044  0.281044 -0.281044 )  


     PseudoPot. # 1 for Ni read from file:
     /home/vossj/suncat/esdld/psp/Ni.UPF
     MD5 check sum: 8b2449ee0060d9c33484ccd47bb60870
     Pseudo is Ultrasoft + core correction, Zval = 10.0
     Generated using "atomic" code by A. Dal Corso  v.5.0.2 svn rev. 9415
     Using radial grid of 1195 points,  6 beta functions with: 
                l(1) =   0
                l(2) =   0
                l(3) =   1
                l(4) =   1
                l(5) =   2
                l(6) =   2
     Q(r) pseudized with 0 coefficients 


     atomic species   valence    mass     pseudopotential
        Ni1           10.00    58.69340     Ni( 1.00)

     Starting magnetic structure 
     atomic species   magnetization
        Ni1          0.200

     48 Sym. Ops., with inversion, found



   Cartesian axes

     site n.     atom                  positions (alat units)
         1           Ni1 tau(   1) = (   0.0000000   0.0000000   0.0000000  )

     number of k points=     6  Fermi-Dirac smearing, width (Ry)=  0.0073
                       cart. coord. in units 2pi/alat
        k(    1) = (   0.0000000   0.0000000   0.0000000), wk =   0.1250000
        k(    2) = (  -0.1405218  -0.1405218   0.1405218), wk =   0.5000000
        k(    3) = (  -0.2810436   0.0000000   0.0000000), wk =   0.3750000
        k(    4) = (   0.0000000   0.0000000   0.0000000), wk =   0.1250000
        k(    5) = (  -0.1405218  -0.1405218   0.1405218), wk =   0.5000000
        k(    6) = (  -0.2810436   0.0000000   0.0000000), wk =   0.3750000

     Dense  grid:    11935 G-vectors     FFT dimensions: (  32,  32,  32)

     Smooth grid:     2975 G-vectors     FFT dimensions: (  24,  24,  24)

     Largest allocated arrays     est. size (Mb)     dimensions
        Kohn-Sham Wavefunctions         0.09 Mb     (     388,   15)
        NL pseudopotentials             0.11 Mb     (     388,   18)
        Each V/rho on FFT grid          1.00 Mb     (   32768,   2)
        Each G-vector array             0.09 Mb     (   11935)
        G-vector shells                 0.00 Mb     (     170)
     Largest temporary arrays     est. size (Mb)     dimensions
        Auxiliary wavefunctions         0.36 Mb     (     388,   60)
        Each subspace H/S matrix        0.05 Mb     (      60,   60)
        Each <psi_i|beta_j> matrix      0.00 Mb     (      18,   15)
        Arrays for rho mixing           5.00 Mb     (   32768,   10)

     Initial potential from superposition of free atoms

     starting charge    9.99975, renormalised to   10.00000
     Starting wfc are    9 randomized atomic wfcs +    6 random wfc

     total cpu time spent up to now is        0.6 secs

     Self-consistent Calculation

     iteration #  1     ecut=    44.10 Ry     beta=0.10
     Davidson diagonalization with overlap
     ethr =  1.00E-02,  avg # of iterations =  6.5

     Threshold (ethr) on eigenvalues was too large:
     Diagonalizing with lowered threshold

     Davidson diagonalization with overlap
     ethr =  2.05E-04,  avg # of iterations =  2.5
 
     Magnetic moment per site:
     atom:    1    charge:    3.9662    magn:    0.7746    constr:    0.0000

     total cpu time spent up to now is        1.1 secs

     total energy              =    -100.48764773 Ry
     Harris-Foulkes estimate   =    -100.48793803 Ry
     estimated scf accuracy    <       0.02036292 Ry

     total magnetization       =     1.25 Bohr mag/cell
     absolute magnetization    =     1.25 Bohr mag/cell

     iteration #  2     ecut=    44.10 Ry     beta=0.10
     Davidson diagonalization with overlap
     ethr =  2.04E-04,  avg # of iterations =  1.0
 
     Magnetic moment per site:
     atom:    1    charge:    3.9677    magn:    0.7645    constr:    0.0000

     total cpu time spent up to now is        1.3 secs

     total energy              =    -100.49070645 Ry
     Harris-Foulkes estimate   =    -100.48877848 Ry
     estimated scf accuracy    <       0.00597326 Ry

     total magnetization       =     1.25 Bohr mag/cell
     absolute magnetization    =     1.25 Bohr mag/cell

     iteration #  3     ecut=    44.10 Ry     beta=0.10
     Davidson diagonalization with overlap
     ethr =  5.97E-05,  avg # of iterations =  1.0
 
     Magnetic moment per site:
     atom:    1    charge:    3.9742    magn:    0.6918    constr:    0.0000

     total cpu time spent up to now is        1.5 secs

     total energy              =    -100.49827425 Ry
     Harris-Foulkes estimate   =    -100.49073605 Ry
     estimated scf accuracy    <       0.00482678 Ry

     total magnetization       =     1.25 Bohr mag/cell
     absolute magnetization    =     1.25 Bohr mag/cell

     iteration #  4     ecut=    44.10 Ry     beta=0.10
     Davidson diagonalization with overlap
     ethr =  4.83E-05,  avg # of iterations =  1.0
 
     Magnetic moment per site:
     atom:    1    charge:    3.9759    magn:    0.7166    constr:    0.0000

     total cpu time spent up to now is        1.7 secs

     total energy              =    -100.49924822 Ry
     Harris-Foulkes estimate   =    -100.49908230 Ry
     estimated scf accuracy    <       0.00029560 Ry

     total magnetization       =     1.25 Bohr mag/cell
     absolute magnetization    =     1.30 Bohr mag/cell

     iteration #  5     ecut=    44.10 Ry     beta=0.10
     Davidson diagonalization with overlap
     ethr =  2.96E-06,  avg # of iterations =  3.0
 
     Magnetic moment per site:
     atom:    1    charge:    3.9776    magn:    0.7303    constr:    0.0000

     total cpu time spent up to now is        1.9 secs

     total energy              =    -100.49945214 Ry
     Harris-Foulkes estimate   =    -100.49928184 Ry
     estimated scf accuracy    <       0.00015821 Ry

     total magnetization       =     1.25 Bohr mag/cell
     absolute magnetization    =     1.31 Bohr mag/cell

     iteration #  6     ecut=    44.10 Ry     beta=0.10
     Davidson diagonalization with overlap
     ethr =  1.58E-06,  avg # of iterations =  1.7
 
     Magnetic moment per site:
     atom:    1    charge:    3.9765    magn:    0.7351    constr:    0.0000

     total cpu time spent up to now is        2.1 secs

     total energy              =    -100.49951051 Ry
     Harris-Foulkes estimate   =    -100.49951438 Ry
     estimated scf accuracy    <       0.00001410 Ry

     total magnetization       =     1.25 Bohr mag/cell
     absolute magnetization    =     1.33 Bohr mag/cell

     iteration #  7     ecut=    44.10 Ry     beta=0.10
     Davidson diagonalization with overlap
     ethr =  1.41E-07,  avg # of iterations =  2.0
 
     Magnetic moment per site:
     atom:    1    charge:    3.9757    magn:    0.7363    constr:    0.0000

     total cpu time spent up to now is        2.3 secs

     total energy              =    -100.49951549 Ry
     Harris-Foulkes estimate   =    -100.49951450 Ry
     estimated scf accuracy    <       0.00000242 Ry

     total magnetization       =     1.24 Bohr mag/cell
     absolute magnetization    =     1.33 Bohr mag/cell

     iteration #  8     ecut=    44.10 Ry     beta=0.10
     Davidson diagonalization with overlap
     ethr =  2.42E-08,  avg # of iterations =  2.0
 
     Magnetic moment per site:
     atom:    1    charge:    3.9762    magn:    0.7333    constr:    0.0000

     total cpu time spent up to now is        2.5 secs

     total energy              =    -100.49951295 Ry
     Harris-Foulkes estimate   =    -100.49951696 Ry
     estimated scf accuracy    <       0.00001296 Ry

     total magnetization       =     1.24 Bohr mag/cell
     absolute magnetization    =     1.33 Bohr mag/cell

     iteration #  9     ecut=    44.10 Ry     beta=0.10
     Davidson diagonalization with overlap
     ethr =  2.42E-08,  avg # of iterations =  2.0
 
     Magnetic moment per site:
     atom:    1    charge:    3.9760    magn:    0.7333    constr:    0.0000

     total cpu time spent up to now is        2.7 secs

     End of self-consistent calculation

 ------ SPIN UP ------------


          k = 0.0000 0.0000 0.0000 (   339 PWs)   bands (ev):

     4.2113  10.1749  10.1749  10.1749  11.3123  11.3123  36.8013  40.2501
    40.2501  40.2501  42.4186  42.4186  42.4186  46.0202  52.0253

          k =-0.1405-0.1405 0.1405 (   368 PWs)   bands (ev):

     8.0325  10.2302  10.2302  11.8814  11.8814  12.7676  18.1787  35.2780
    37.1411  37.1411  39.6697  39.6697  45.7562  59.3176  59.3176

          k =-0.2810 0.0000 0.0000 (   388 PWs)   bands (ev):

     8.2612   8.5628  11.9617  11.9728  11.9728  15.4075  21.7261  27.5800
    27.5800  31.9768  35.5163  57.9375  61.9895  63.1913  63.1913

 ------ SPIN DOWN ----------


          k = 0.0000 0.0000 0.0000 (   339 PWs)   bands (ev):

     4.2359  11.5585  11.5585  11.5585  12.4788  12.4788  36.6492  40.3168
    40.3168  40.3168  42.6589  42.6589  42.6589  45.9530  52.4297

          k =-0.1405-0.1405 0.1405 (   368 PWs)   bands (ev):

     8.8839  11.4178  11.4178  12.7437  13.2946  13.2946  18.9656  35.1440
    37.3724  37.3724  39.8434  39.8434  46.0449  59.4473  59.4473

          k =-0.2810 0.0000 0.0000 (   388 PWs)   bands (ev):

     8.9932   9.7272  13.1772  13.5369  13.5369  15.4194  22.2621  27.6674
    27.6674  32.3463  35.8625  57.8761  61.9120  63.1729  63.1729

     the Fermi energy is    13.3031 ev

!    total energy              =    -100.49951584 Ry
     Harris-Foulkes estimate   =    -100.49951564 Ry
     estimated scf accuracy    <       0.00000014 Ry

     The total energy is the sum of the following terms:

     one-electron contribution =     -11.01948639 Ry
     hartree contribution      =      20.54775454 Ry
     xc contribution           =     -41.83246277 Ry
     ewald contribution        =     -68.18693061 Ry
     smearing contrib. (-TS)   =      -0.00839061 Ry

     total magnetization       =     1.25 Bohr mag/cell
     absolute magnetization    =     1.33 Bohr mag/cell

     convergence has been achieved in   9 iterations

     Forces acting on atoms (Ry/au):

     atom    1 type  1   force =     0.00000000    0.00000000    0.00000000

     Total force =     0.000000     Total SCF correction =     0.000000
 !ASE
  python dir          : /home/vossj/suncat/lib/python2.7/site-packages/espresso
  espresso dir        : /home/vossj/suncat/esdld/espresso-dynpy-beef/bin
  pseudo dir          : /home/vossj/suncat/esdld/psp
  ase-espresso py git : ffa2778-git



     Writing output data file calc.save
 
     init_run     :      1.26s CPU      0.36s WALL (       1 calls)
     electrons    :     29.48s CPU      2.08s WALL (       1 calls)
     forces       :      2.17s CPU      0.14s WALL (       1 calls)

     Called by init_run:
     wfcinit      :      0.73s CPU      0.07s WALL (       1 calls)
     potinit      :      0.04s CPU      0.04s WALL (       1 calls)

     Called by electrons:
     c_bands      :     11.00s CPU      0.76s WALL (      10 calls)
     sum_band     :      8.48s CPU      0.61s WALL (      10 calls)
     v_of_rho     :      5.69s CPU      0.43s WALL (      10 calls)
     newd         :      4.04s CPU      0.31s WALL (      10 calls)
     mix_rho      :      0.32s CPU      0.02s WALL (      10 calls)

     Called by c_bands:
     init_us_2    :      0.21s CPU      0.01s WALL (     132 calls)
     cegterg      :     10.35s CPU      0.71s WALL (      60 calls)

     Called by *egterg:
     h_psi        :      8.71s CPU      0.62s WALL (     202 calls)
     s_psi        :      0.07s CPU      0.01s WALL (     202 calls)
     g_psi        :      0.13s CPU      0.01s WALL (     136 calls)
     cdiaghg      :      1.22s CPU      0.08s WALL (     190 calls)

     Called by h_psi:
     add_vuspsi   :      0.17s CPU      0.01s WALL (     202 calls)

     General routines
     calbec       :      0.82s CPU      0.07s WALL (     268 calls)
     fft          :      1.52s CPU      0.12s WALL (     327 calls)
     ffts         :      0.06s CPU      0.00s WALL (      40 calls)
     fftw         :      7.73s CPU      0.56s WALL (    5210 calls)
     interpolate  :      0.28s CPU      0.02s WALL (      40 calls)
     davcio       :      0.00s CPU      0.00s WALL (       6 calls)
 
     Parallel routines
     fft_scatter  :      1.34s CPU      0.10s WALL (    5577 calls)
 
     PWSCF        :    34.51s CPU         2.91s WALL

 
   This run was terminated on:  11:22:50  10Mar2017            

=------------------------------------------------------------------------------=
   JOB DONE.
=------------------------------------------------------------------------------=
--------------------------------------------------------------------------
WARNING: It appears that your OpenFabrics subsystem is configured to only
allow registering part of your physical memory.  This can cause MPI jobs to
run with erratic performance, hang, and/or crash.

This may be caused by your OpenFabrics vendor limiting the amount of
physical memory that can be registered.  You should investigate the
relevant Linux kernel module parameters that control how much physical
memory can be registered, and increase them to allow registering all
physical memory on your machine.

See this Open MPI FAQ item for more information on these Linux kernel module
parameters:

    http://www.open-mpi.org/faq/?category=openfabrics#ib-locked-pages

  Local host:              sherlock-ln03
  Registerable memory:     16384 MiB
  Total memory:            65314 MiB

Your MPI job will continue, but may be behave poorly and/or hang.
--------------------------------------------------------------------------

     Program PWSCF v.5.1rc2 (svn rev. ) starts on 10Mar2017 at 11:22:50 

     This program is part of the open-source Quantum ESPRESSO suite
     for quantum simulation of materials; please cite
         "P. Giannozzi et al., J. Phys.:Condens. Matter 21 395502 (2009);
          URL http://www.quantum-espresso.org", 
     in publications or presentations arising from this work. More details at
     http://www.quantum-espresso.org/quote

     Parallel version (MPI), running on     1 processors
     Reading input from pw.inp
     Message from routine read_cards :
     DEPRECATED: no units specified in CELL_PARAMETERS card

     Current dimensions of program PWSCF are:
     Max number of different atomic species (ntypx) = 10
     Max number of k-points (npk) =  40000
     Max angular momentum in pseudopotentials (lmaxx) =  3

     IMPORTANT: XC functional enforced from input :
     Exchange-correlation      = RPBE ( 1  4 28  4 0)
     Any further DFT definition will be discarded
     Please, verify this is what you really want

               file Ni.UPF: wavefunction(s)  3D renormalized

     Subspace diagonalization in iterative solution of the eigenvalue problem:
     a serial algorithm will be used

 
     G-vector sticks info
     --------------------
     sticks:   dense  smooth     PW     G-vecs:    dense   smooth      PW
     Sum         685     271     85                11935     2975     537
 
     Generating pointlists ...
     new r_m :   0.4125 (alat units)  0.7795 (a.u.) for type    1


     bravais-lattice index     =            0
     lattice parameter (alat)  =       1.8897  a.u.
     unit-cell volume          =      76.0003 (a.u.)^3
     number of atoms/cell      =            1
     number of atomic types    =            1
     number of electrons       =        10.00
     number of Kohn-Sham states=           15
     kinetic-energy cutoff     =      44.0992  Ry
     charge density cutoff     =     440.9919  Ry
     convergence threshold     =      7.3E-07
     mixing beta               =       0.1000
     number of iterations used =           10  plain     mixing
     Exchange-correlation      = RPBE ( 1  4 28  4 0)
     nstep                     =           50


     celldm(1)=   1.889726  celldm(2)=   0.000000  celldm(3)=   0.000000
     celldm(4)=   0.000000  celldm(5)=   0.000000  celldm(6)=   0.000000

     crystal axes: (cart. coord. in units of alat)
               a(1) = (   0.000000   1.779083   1.779083 )  
               a(2) = (   1.779083   0.000000   1.779083 )  
               a(3) = (   1.779083   1.779083   0.000000 )  

     reciprocal axes: (cart. coord. in units 2 pi/alat)
               b(1) = ( -0.281044  0.281044  0.281044 )  
               b(2) = (  0.281044 -0.281044  0.281044 )  
               b(3) = (  0.281044  0.281044 -0.281044 )  


     PseudoPot. # 1 for Ni read from file:
     /home/vossj/suncat/esdld/psp/Ni.UPF
     MD5 check sum: 8b2449ee0060d9c33484ccd47bb60870
     Pseudo is Ultrasoft + core correction, Zval = 10.0
     Generated using "atomic" code by A. Dal Corso  v.5.0.2 svn rev. 9415
     Using radial grid of 1195 points,  6 beta functions with: 
                l(1) =   0
                l(2) =   0
                l(3) =   1
                l(4) =   1
                l(5) =   2
                l(6) =   2
     Q(r) pseudized with 0 coefficients 


     atomic species   valence    mass     pseudopotential
        Ni1           10.00    58.69340     Ni( 1.00)

     Starting magnetic structure 
     atomic species   magnetization
        Ni1          0.200

     48 Sym. Ops., with inversion, found



   Cartesian axes

     site n.     atom                  positions (alat units)
         1           Ni1 tau(   1) = (   0.0000000   0.0000000   0.0000000  )

     number of k points=     8  Fermi-Dirac smearing, width (Ry)=  0.0073
                       cart. coord. in units 2pi/alat
        k(    1) = (   0.0000000   0.0000000   0.0000000), wk =   0.0370370
        k(    2) = (   0.0936812   0.0936812  -0.0936812), wk =   0.2962963
        k(    3) = (   0.1873624   0.0000000   0.0000000), wk =   0.2222222
        k(    4) = (  -0.0000000  -0.1873624   0.1873624), wk =   0.4444444
        k(    5) = (   0.0000000   0.0000000   0.0000000), wk =   0.0370370
        k(    6) = (   0.0936812   0.0936812  -0.0936812), wk =   0.2962963
        k(    7) = (   0.1873624   0.0000000   0.0000000), wk =   0.2222222
        k(    8) = (  -0.0000000  -0.1873624   0.1873624), wk =   0.4444444

     Dense  grid:    11935 G-vectors     FFT dimensions: (  32,  32,  32)

     Smooth grid:     2975 G-vectors     FFT dimensions: (  24,  24,  24)

     Largest allocated arrays     est. size (Mb)     dimensions
        Kohn-Sham Wavefunctions         0.09 Mb     (     383,   15)
        NL pseudopotentials             0.11 Mb     (     383,   18)
        Each V/rho on FFT grid          1.00 Mb     (   32768,   2)
        Each G-vector array             0.09 Mb     (   11935)
        G-vector shells                 0.00 Mb     (     170)
     Largest temporary arrays     est. size (Mb)     dimensions
        Auxiliary wavefunctions         0.35 Mb     (     383,   60)
        Each subspace H/S matrix        0.05 Mb     (      60,   60)
        Each <psi_i|beta_j> matrix      0.00 Mb     (      18,   15)
        Arrays for rho mixing           5.00 Mb     (   32768,   10)

     Initial potential from superposition of free atoms

     starting charge    9.99975, renormalised to   10.00000
     Starting wfc are    9 randomized atomic wfcs +    6 random wfc

     total cpu time spent up to now is        0.6 secs

     Self-consistent Calculation

     iteration #  1     ecut=    44.10 Ry     beta=0.10
     Davidson diagonalization with overlap
     ethr =  1.00E-02,  avg # of iterations =  5.4

     Threshold (ethr) on eigenvalues was too large:
     Diagonalizing with lowered threshold

     Davidson diagonalization with overlap
     ethr =  8.09E-05,  avg # of iterations =  1.0
 
     Magnetic moment per site:
     atom:    1    charge:    3.9585    magn:    0.7732    constr:    0.0000

     total cpu time spent up to now is        1.2 secs

     total energy              =    -100.64166744 Ry
     Harris-Foulkes estimate   =    -100.63919467 Ry
     estimated scf accuracy    <       0.00813559 Ry

     total magnetization       =     1.11 Bohr mag/cell
     absolute magnetization    =     1.13 Bohr mag/cell

     iteration #  2     ecut=    44.10 Ry     beta=0.10
     Davidson diagonalization with overlap
     ethr =  8.14E-05,  avg # of iterations =  1.0
 
     Magnetic moment per site:
     atom:    1    charge:    3.9684    magn:    0.6716    constr:    0.0000

     total cpu time spent up to now is        1.4 secs

     total energy              =    -100.65093036 Ry
     Harris-Foulkes estimate   =    -100.64168873 Ry
     estimated scf accuracy    <       0.00630979 Ry

     total magnetization       =     1.11 Bohr mag/cell
     absolute magnetization    =     1.13 Bohr mag/cell

     iteration #  3     ecut=    44.10 Ry     beta=0.10
     Davidson diagonalization with overlap
     ethr =  6.31E-05,  avg # of iterations =  1.0
 
     Magnetic moment per site:
     atom:    1    charge:    3.9675    magn:    0.6315    constr:    0.0000

     total cpu time spent up to now is        1.6 secs

     total energy              =    -100.65275956 Ry
     Harris-Foulkes estimate   =    -100.65130768 Ry
     estimated scf accuracy    <       0.00091964 Ry

     total magnetization       =     1.11 Bohr mag/cell
     absolute magnetization    =     1.16 Bohr mag/cell

     iteration #  4     ecut=    44.10 Ry     beta=0.10
     Davidson diagonalization with overlap
     ethr =  9.20E-06,  avg # of iterations =  1.2
 
     Magnetic moment per site:
     atom:    1    charge:    3.9691    magn:    0.6251    constr:    0.0000

     total cpu time spent up to now is        1.8 secs

     total energy              =    -100.65278450 Ry
     Harris-Foulkes estimate   =    -100.65285757 Ry
     estimated scf accuracy    <       0.00008151 Ry

     total magnetization       =     1.11 Bohr mag/cell
     absolute magnetization    =     1.18 Bohr mag/cell

     iteration #  5     ecut=    44.10 Ry     beta=0.10
     Davidson diagonalization with overlap
     ethr =  8.15E-07,  avg # of iterations =  1.6
 
     Magnetic moment per site:
     atom:    1    charge:    3.9676    magn:    0.6544    constr:    0.0000

     total cpu time spent up to now is        2.0 secs

     total energy              =    -100.65297498 Ry
     Harris-Foulkes estimate   =    -100.65280432 Ry
     estimated scf accuracy    <       0.00024840 Ry

     total magnetization       =     1.11 Bohr mag/cell
     absolute magnetization    =     1.18 Bohr mag/cell

     iteration #  6     ecut=    44.10 Ry     beta=0.10
     Davidson diagonalization with overlap
     ethr =  8.15E-07,  avg # of iterations =  2.2
 
     Magnetic moment per site:
     atom:    1    charge:    3.9678    magn:    0.6553    constr:    0.0000

     total cpu time spent up to now is        2.2 secs

     total energy              =    -100.65312108 Ry
     Harris-Foulkes estimate   =    -100.65312215 Ry
     estimated scf accuracy    <       0.00000346 Ry

     total magnetization       =     1.11 Bohr mag/cell
     absolute magnetization    =     1.20 Bohr mag/cell

     iteration #  7     ecut=    44.10 Ry     beta=0.10
     Davidson diagonalization with overlap
     ethr =  3.46E-08,  avg # of iterations =  1.1
 
     Magnetic moment per site:
     atom:    1    charge:    3.9679    magn:    0.6537    constr:    0.0000

     total cpu time spent up to now is        2.5 secs

     total energy              =    -100.65312130 Ry
     Harris-Foulkes estimate   =    -100.65312135 Ry
     estimated scf accuracy    <       0.00000126 Ry

     total magnetization       =     1.11 Bohr mag/cell
     absolute magnetization    =     1.21 Bohr mag/cell

     iteration #  8     ecut=    44.10 Ry     beta=0.10
     Davidson diagonalization with overlap
     ethr =  1.26E-08,  avg # of iterations =  1.4
 
     Magnetic moment per site:
     atom:    1    charge:    3.9674    magn:    0.6539    constr:    0.0000

     total cpu time spent up to now is        2.7 secs

     End of self-consistent calculation

 ------ SPIN UP ------------


          k = 0.0000 0.0000 0.0000 (   339 PWs)   bands (ev):

     4.2350  10.3221  10.3221  10.3221  11.3477  11.3477  36.8871  40.2387
    40.2387  40.2387  42.4525  42.4525  42.4525  46.0552  52.0878

          k = 0.0937 0.0937-0.0937 (   359 PWs)   bands (ev):

     7.5188  10.4409  10.4409  10.4748  11.6730  11.6730  23.1291  36.0854
    37.3227  37.3227  41.4911  41.4911  45.1877  52.6525  52.6525

          k = 0.1874 0.0000 0.0000 (   379 PWs)   bands (ev):

     8.1154   9.0852  11.5766  11.5766  11.6630  11.8322  28.1999  29.5842
    29.5842  32.6184  36.2477  55.6607  55.6607  56.2636  58.2455

          k =-0.0000-0.1874 0.1874 (   383 PWs)   bands (ev):

     9.1870   9.4326  10.2159  11.2609  11.7276  17.4613  20.1898  23.1492
    31.3455  34.5393  48.5819  49.3213  49.7388  53.3795  55.6335

 ------ SPIN DOWN ----------


          k = 0.0000 0.0000 0.0000 (   339 PWs)   bands (ev):

     4.2294  11.4996  11.4996  11.4996  12.4923  12.4923  36.6513  40.2959
    40.2959  40.2959  42.6578  42.6578  42.6578  45.8368  52.3949

          k = 0.0937 0.0937-0.0937 (   359 PWs)   bands (ev):

     7.7536  11.2106  11.5597  11.5597  12.8977  12.8977  23.4792  35.8859
    37.5418  37.5418  41.6227  41.6227  45.2874  52.8411  52.8411

          k = 0.1874 0.0000 0.0000 (   379 PWs)   bands (ev):

     8.4762  10.1082  12.2532  12.8448  12.8448  13.0100  28.4085  29.7245
    29.7245  32.8265  36.5252  55.5612  55.5612  56.3760  58.1763

          k =-0.0000-0.1874 0.1874 (   383 PWs)   bands (ev):

    10.1111  10.1741  11.1910  12.3703  13.0242  17.9195  20.5303  23.4923
    31.5182  34.6603  48.7418  49.3614  49.6484  53.6564  55.7600

     the Fermi energy is    12.8616 ev

!    total energy              =    -100.65312169 Ry
     Harris-Foulkes estimate   =    -100.65312185 Ry
     estimated scf accuracy    <       0.00000037 Ry

     The total energy is the sum of the following terms:

     one-electron contribution =     -11.21885475 Ry
     hartree contribution      =      20.57124050 Ry
     xc contribution           =     -41.81090251 Ry
     ewald contribution        =     -68.18693061 Ry
     smearing contrib. (-TS)   =      -0.00767432 Ry

     total magnetization       =     1.11 Bohr mag/cell
     absolute magnetization    =     1.20 Bohr mag/cell

     convergence has been achieved in   8 iterations

     Forces acting on atoms (Ry/au):

     atom    1 type  1   force =     0.00000000    0.00000000    0.00000000

     Total force =     0.000000     Total SCF correction =     0.000000
 !ASE
  python dir          : /home/vossj/suncat/lib/python2.7/site-packages/espresso
  espresso dir        : /home/vossj/suncat/esdld/espresso-dynpy-beef/bin
  pseudo dir          : /home/vossj/suncat/esdld/psp
  ase-espresso py git : ffa2778-git



     Writing output data file calc.save
 
     init_run     :      1.62s CPU      0.38s WALL (       1 calls)
     electrons    :     29.80s CPU      2.06s WALL (       1 calls)
     forces       :      2.21s CPU      0.14s WALL (       1 calls)

     Called by init_run:
     wfcinit      :      1.01s CPU      0.07s WALL (       1 calls)
     potinit      :      0.03s CPU      0.04s WALL (       1 calls)

     Called by electrons:
     c_bands      :     12.05s CPU      0.83s WALL (       9 calls)
     sum_band     :      8.49s CPU      0.58s WALL (       9 calls)
     v_of_rho     :      5.35s CPU      0.41s WALL (       9 calls)
     newd         :      3.77s CPU      0.29s WALL (       9 calls)
     mix_rho      :      0.27s CPU      0.02s WALL (       9 calls)

     Called by c_bands:
     init_us_2    :      0.21s CPU      0.02s WALL (     160 calls)
     cegterg      :     11.30s CPU      0.78s WALL (      72 calls)

     Called by *egterg:
     h_psi        :      9.97s CPU      0.70s WALL (     208 calls)
     s_psi        :      0.08s CPU      0.01s WALL (     208 calls)
     g_psi        :      0.12s CPU      0.01s WALL (     128 calls)
     cdiaghg      :      1.06s CPU      0.08s WALL (     192 calls)

     Called by h_psi:
     add_vuspsi   :      0.10s CPU      0.01s WALL (     208 calls)

     General routines
     calbec       :      0.92s CPU      0.07s WALL (     288 calls)
     fft          :      1.66s CPU      0.13s WALL (     296 calls)
     ffts         :      0.06s CPU      0.00s WALL (      36 calls)
     fftw         :      9.25s CPU      0.65s WALL (    6170 calls)
     interpolate  :      0.28s CPU      0.02s WALL (      36 calls)
     davcio       :      0.00s CPU      0.00s WALL (       8 calls)
 
     Parallel routines
     fft_scatter  :      1.51s CPU      0.11s WALL (    6502 calls)
 
     PWSCF        :    35.08s CPU         2.89s WALL

 
   This run was terminated on:  11:22:53  10Mar2017            

=------------------------------------------------------------------------------=
   JOB DONE.
=------------------------------------------------------------------------------=
--------------------------------------------------------------------------
WARNING: It appears that your OpenFabrics subsystem is configured to only
allow registering part of your physical memory.  This can cause MPI jobs to
run with erratic performance, hang, and/or crash.

This may be caused by your OpenFabrics vendor limiting the amount of
physical memory that can be registered.  You should investigate the
relevant Linux kernel module parameters that control how much physical
memory can be registered, and increase them to allow registering all
physical memory on your machine.

See this Open MPI FAQ item for more information on these Linux kernel module
parameters:

    http://www.open-mpi.org/faq/?category=openfabrics#ib-locked-pages

  Local host:              sherlock-ln03
  Registerable memory:     16384 MiB
  Total memory:            65314 MiB

Your MPI job will continue, but may be behave poorly and/or hang.
--------------------------------------------------------------------------

     Program PWSCF v.5.1rc2 (svn rev. ) starts on 10Mar2017 at 11:22:53 

     This program is part of the open-source Quantum ESPRESSO suite
     for quantum simulation of materials; please cite
         "P. Giannozzi et al., J. Phys.:Condens. Matter 21 395502 (2009);
          URL http://www.quantum-espresso.org", 
     in publications or presentations arising from this work. More details at
     http://www.quantum-espresso.org/quote

     Parallel version (MPI), running on     1 processors
     Reading input from pw.inp
     Message from routine read_cards :
     DEPRECATED: no units specified in CELL_PARAMETERS card

     Current dimensions of program PWSCF are:
     Max number of different atomic species (ntypx) = 10
     Max number of k-points (npk) =  40000
     Max angular momentum in pseudopotentials (lmaxx) =  3

     IMPORTANT: XC functional enforced from input :
     Exchange-correlation      = RPBE ( 1  4 28  4 0)
     Any further DFT definition will be discarded
     Please, verify this is what you really want

               file Ni.UPF: wavefunction(s)  3D renormalized

     Subspace diagonalization in iterative solution of the eigenvalue problem:
     a serial algorithm will be used

 
     G-vector sticks info
     --------------------
     sticks:   dense  smooth     PW     G-vecs:    dense   smooth      PW
     Sum         685     271     91                11935     2975     561
 
     Generating pointlists ...
     new r_m :   0.4125 (alat units)  0.7795 (a.u.) for type    1


     bravais-lattice index     =            0
     lattice parameter (alat)  =       1.8897  a.u.
     unit-cell volume          =      76.0003 (a.u.)^3
     number of atoms/cell      =            1
     number of atomic types    =            1
     number of electrons       =        10.00
     number of Kohn-Sham states=           15
     kinetic-energy cutoff     =      44.0992  Ry
     charge density cutoff     =     440.9919  Ry
     convergence threshold     =      7.3E-07
     mixing beta               =       0.1000
     number of iterations used =           10  plain     mixing
     Exchange-correlation      = RPBE ( 1  4 28  4 0)
     nstep                     =           50


     celldm(1)=   1.889726  celldm(2)=   0.000000  celldm(3)=   0.000000
     celldm(4)=   0.000000  celldm(5)=   0.000000  celldm(6)=   0.000000

     crystal axes: (cart. coord. in units of alat)
               a(1) = (   0.000000   1.779083   1.779083 )  
               a(2) = (   1.779083   0.000000   1.779083 )  
               a(3) = (   1.779083   1.779083   0.000000 )  

     reciprocal axes: (cart. coord. in units 2 pi/alat)
               b(1) = ( -0.281044  0.281044  0.281044 )  
               b(2) = (  0.281044 -0.281044  0.281044 )  
               b(3) = (  0.281044  0.281044 -0.281044 )  


     PseudoPot. # 1 for Ni read from file:
     /home/vossj/suncat/esdld/psp/Ni.UPF
     MD5 check sum: 8b2449ee0060d9c33484ccd47bb60870
     Pseudo is Ultrasoft + core correction, Zval = 10.0
     Generated using "atomic" code by A. Dal Corso  v.5.0.2 svn rev. 9415
     Using radial grid of 1195 points,  6 beta functions with: 
                l(1) =   0
                l(2) =   0
                l(3) =   1
                l(4) =   1
                l(5) =   2
                l(6) =   2
     Q(r) pseudized with 0 coefficients 


     atomic species   valence    mass     pseudopotential
        Ni1           10.00    58.69340     Ni( 1.00)

     Starting magnetic structure 
     atomic species   magnetization
        Ni1          0.200

     48 Sym. Ops., with inversion, found



   Cartesian axes

     site n.     atom                  positions (alat units)
         1           Ni1 tau(   1) = (   0.0000000   0.0000000   0.0000000  )

     number of k points=    16  Fermi-Dirac smearing, width (Ry)=  0.0073
                       cart. coord. in units 2pi/alat
        k(    1) = (   0.0000000   0.0000000   0.0000000), wk =   0.0156250
        k(    2) = (   0.0702609   0.0702609  -0.0702609), wk =   0.1250000
        k(    3) = (  -0.1405218  -0.1405218   0.1405218), wk =   0.0625000
        k(    4) = (   0.1405218   0.0000000   0.0000000), wk =   0.0937500
        k(    5) = (  -0.0702609  -0.2107827   0.2107827), wk =   0.3750000
        k(    6) = (   0.0000000  -0.1405218   0.1405218), wk =   0.1875000
        k(    7) = (  -0.2810436   0.0000000   0.0000000), wk =   0.0468750
        k(    8) = (  -0.2810436   0.1405218   0.0000000), wk =   0.0937500
        k(    9) = (   0.0000000   0.0000000   0.0000000), wk =   0.0156250
        k(   10) = (   0.0702609   0.0702609  -0.0702609), wk =   0.1250000
        k(   11) = (  -0.1405218  -0.1405218   0.1405218), wk =   0.0625000
        k(   12) = (   0.1405218   0.0000000   0.0000000), wk =   0.0937500
        k(   13) = (  -0.0702609  -0.2107827   0.2107827), wk =   0.3750000
        k(   14) = (   0.0000000  -0.1405218   0.1405218), wk =   0.1875000
        k(   15) = (  -0.2810436   0.0000000   0.0000000), wk =   0.0468750
        k(   16) = (  -0.2810436   0.1405218   0.0000000), wk =   0.0937500

     Dense  grid:    11935 G-vectors     FFT dimensions: (  32,  32,  32)

     Smooth grid:     2975 G-vectors     FFT dimensions: (  24,  24,  24)

     Largest allocated arrays     est. size (Mb)     dimensions
        Kohn-Sham Wavefunctions         0.09 Mb     (     388,   15)
        NL pseudopotentials             0.11 Mb     (     388,   18)
        Each V/rho on FFT grid          1.00 Mb     (   32768,   2)
        Each G-vector array             0.09 Mb     (   11935)
        G-vector shells                 0.00 Mb     (     170)
     Largest temporary arrays     est. size (Mb)     dimensions
        Auxiliary wavefunctions         0.36 Mb     (     388,   60)
        Each subspace H/S matrix        0.05 Mb     (      60,   60)
        Each <psi_i|beta_j> matrix      0.00 Mb     (      18,   15)
        Arrays for rho mixing           5.00 Mb     (   32768,   10)

     Initial potential from superposition of free atoms

     starting charge    9.99975, renormalised to   10.00000
     Starting wfc are    9 randomized atomic wfcs +    6 random wfc

     total cpu time spent up to now is        0.7 secs

     Self-consistent Calculation

     iteration #  1     ecut=    44.10 Ry     beta=0.10
     Davidson diagonalization with overlap
     ethr =  1.00E-02,  avg # of iterations =  5.9

     Threshold (ethr) on eigenvalues was too large:
     Diagonalizing with lowered threshold

     Davidson diagonalization with overlap
     ethr =  3.61E-04,  avg # of iterations =  1.2
 
     Magnetic moment per site:
     atom:    1    charge:    3.9646    magn:    0.7538    constr:    0.0000

     total cpu time spent up to now is        1.5 secs

     total energy              =    -100.64009454 Ry
     Harris-Foulkes estimate   =    -100.63794761 Ry
     estimated scf accuracy    <       0.03635042 Ry

     total magnetization       =     0.76 Bohr mag/cell
     absolute magnetization    =     0.76 Bohr mag/cell

     iteration #  2     ecut=    44.10 Ry     beta=0.10
     Davidson diagonalization with overlap
     ethr =  3.64E-04,  avg # of iterations =  1.2
 
     Magnetic moment per site:
     atom:    1    charge:    3.9738    magn:    0.6720    constr:    0.0000

     total cpu time spent up to now is        1.8 secs

     total energy              =    -100.64740047 Ry
     Harris-Foulkes estimate   =    -100.64059114 Ry
     estimated scf accuracy    <       0.02412840 Ry

     total magnetization       =     0.72 Bohr mag/cell
     absolute magnetization    =     0.73 Bohr mag/cell

     iteration #  3     ecut=    44.10 Ry     beta=0.10
     Davidson diagonalization with overlap
     ethr =  2.41E-04,  avg # of iterations =  1.0
 
     Magnetic moment per site:
     atom:    1    charge:    3.9869    magn:    0.2225    constr:    0.0000

     total cpu time spent up to now is        2.1 secs

     total energy              =    -100.65695546 Ry
     Harris-Foulkes estimate   =    -100.64815095 Ry
     estimated scf accuracy    <       0.01532211 Ry

     total magnetization       =     0.64 Bohr mag/cell
     absolute magnetization    =     0.70 Bohr mag/cell

     iteration #  4     ecut=    44.10 Ry     beta=0.10
     Davidson diagonalization with overlap
     ethr =  1.53E-04,  avg # of iterations =  1.0
 
     Magnetic moment per site:
     atom:    1    charge:    3.9748    magn:    0.3708    constr:    0.0000

     total cpu time spent up to now is        2.4 secs

     total energy              =    -100.66037379 Ry
     Harris-Foulkes estimate   =    -100.65976847 Ry
     estimated scf accuracy    <       0.00537735 Ry

     total magnetization       =     0.48 Bohr mag/cell
     absolute magnetization    =     0.61 Bohr mag/cell

     iteration #  5     ecut=    44.10 Ry     beta=0.10
     Davidson diagonalization with overlap
     ethr =  5.38E-05,  avg # of iterations =  1.2
 
     Magnetic moment per site:
     atom:    1    charge:    3.9749    magn:    0.3647    constr:    0.0000

     total cpu time spent up to now is        2.7 secs

     total energy              =    -100.66173175 Ry
     Harris-Foulkes estimate   =    -100.66172503 Ry
     estimated scf accuracy    <       0.00001338 Ry

     total magnetization       =     0.59 Bohr mag/cell
     absolute magnetization    =     0.68 Bohr mag/cell

     iteration #  6     ecut=    44.10 Ry     beta=0.10
     Davidson diagonalization with overlap
     ethr =  1.34E-07,  avg # of iterations =  3.2
 
     Magnetic moment per site:
     atom:    1    charge:    3.9751    magn:    0.3681    constr:    0.0000

     total cpu time spent up to now is        3.0 secs

     total energy              =    -100.66173779 Ry
     Harris-Foulkes estimate   =    -100.66173420 Ry
     estimated scf accuracy    <       0.00001069 Ry

     total magnetization       =     0.58 Bohr mag/cell
     absolute magnetization    =     0.68 Bohr mag/cell

     iteration #  7     ecut=    44.10 Ry     beta=0.10
     Davidson diagonalization with overlap
     ethr =  1.07E-07,  avg # of iterations =  1.0
 
     Magnetic moment per site:
     atom:    1    charge:    3.9750    magn:    0.3694    constr:    0.0000

     total cpu time spent up to now is        3.3 secs

     total energy              =    -100.66173919 Ry
     Harris-Foulkes estimate   =    -100.66173819 Ry
     estimated scf accuracy    <       0.00000933 Ry

     total magnetization       =     0.58 Bohr mag/cell
     absolute magnetization    =     0.69 Bohr mag/cell

     iteration #  8     ecut=    44.10 Ry     beta=0.10
     Davidson diagonalization with overlap
     ethr =  9.33E-08,  avg # of iterations =  1.5
 
     Magnetic moment per site:
     atom:    1    charge:    3.9745    magn:    0.3695    constr:    0.0000

     total cpu time spent up to now is        3.7 secs

     End of self-consistent calculation

 ------ SPIN UP ------------


          k = 0.0000 0.0000 0.0000 (   339 PWs)   bands (ev):

     4.2913  10.8412  10.8412  10.8412  11.8971  11.8971  36.8772  40.3121
    40.3121  40.3121  42.6205  42.6205  42.6205  45.9917  52.2342

          k = 0.0703 0.0703-0.0703 (   368 PWs)   bands (ev):

     6.4740  10.5229  11.0419  11.0419  11.9775  11.9775  27.1795  36.8165
    37.8847  37.8847  43.4785  43.4785  44.6870  49.6130  49.6130

          k =-0.1405-0.1405 0.1405 (   368 PWs)   bands (ev):

     8.4879  10.8224  10.8224  12.5593  12.5593  12.8243  18.5700  35.2861
    37.3010  37.3010  39.8193  39.8193  45.9679  59.4212  59.4212

          k = 0.1405 0.0000 0.0000 (   375 PWs)   bands (ev):

     7.1182   9.9607  11.3250  11.6415  11.6415  12.2270  31.9373  31.9373
    32.8174  33.5230  37.8565  52.1067  52.1067  52.6661  55.3752

          k =-0.0703-0.2108 0.2108 (   377 PWs)   bands (ev):

     9.2005   9.8252  10.8641  11.6414  12.6070  15.2759  21.3397  27.3163
    30.8977  34.4461  44.5917  48.7342  49.5535  56.1468  60.3286

          k = 0.0000-0.1405 0.1405 (   379 PWs)   bands (ev):

     9.0131  10.2180  10.4880  11.4851  11.8396  14.0431  24.3267  25.7015
    35.4833  36.4208  45.0017  46.1668  48.4248  51.9388  58.2711

          k =-0.2810 0.0000 0.0000 (   388 PWs)   bands (ev):

     8.6510   9.1439  12.5675  12.7130  12.7130  15.5066  22.0030  27.6816
    27.6816  32.2519  35.6710  58.0154  62.0341  63.2760  63.2761

          k =-0.2810 0.1405 0.0000 (   380 PWs)   bands (ev):

     9.5026  10.2131  10.2131  11.8351  12.7147  20.6502  20.6502  22.8007
    23.8944  43.0940  43.0940  44.8151  49.7530  62.8875  62.8875

 ------ SPIN DOWN ----------


          k = 0.0000 0.0000 0.0000 (   339 PWs)   bands (ev):

     4.2168  11.4991  11.4991  11.4991  12.5098  12.5098  36.6765  40.2814
    40.2814  40.2814  42.6627  42.6627  42.6627  45.8289  52.3607

          k = 0.0703 0.0703-0.0703 (   368 PWs)   bands (ev):

     6.4247  11.0852  11.6765  11.6765  12.6213  12.6213  27.2682  36.6543
    37.9349  37.9349  43.4678  43.4678  44.6287  49.6803  49.6803

          k =-0.1405-0.1405 0.1405 (   368 PWs)   bands (ev):

     8.8475  11.4132  11.4132  12.7196  13.2649  13.2649  18.9243  35.1021
    37.3512  37.3512  39.8331  39.8331  46.0336  59.4313  59.4313

          k = 0.1405 0.0000 0.0000 (   375 PWs)   bands (ev):

     7.0805  10.5504  11.8346  12.3313  12.3313  12.8535  31.9703  31.9703
    32.7867  33.5405  38.0047  51.9664  51.9664  52.5639  55.3776

          k =-0.0703-0.2108 0.2108 (   377 PWs)   bands (ev):

     9.5548  10.2727  11.3822  12.2645  13.3201  15.6013  21.4886  27.3909
    30.9182  34.4719  44.6249  48.7071  49.4660  56.1559  60.3775

          k = 0.0000-0.1405 0.1405 (   379 PWs)   bands (ev):

     9.1428  10.7658  11.0049  12.0631  12.5506  14.5667  24.4541  25.7819
    35.5328  36.3773  44.8852  46.1362  48.5162  51.9747  58.2673

          k =-0.2810 0.0000 0.0000 (   388 PWs)   bands (ev):

     9.0004   9.6779  13.2086  13.4699  13.4699  15.4207  22.2359  27.6510
    27.6510  32.3542  35.7797  57.9069  61.9161  63.1626  63.1627

          k =-0.2810 0.1405 0.0000 (   380 PWs)   bands (ev):

     9.8946  10.7372  10.7372  12.4204  13.4718  20.7684  20.7684  22.9422
    24.0063  43.0386  43.0386  44.8796  49.8301  62.7727  62.7727

     the Fermi energy is    13.1882 ev

!    total energy              =    -100.66174147 Ry
     Harris-Foulkes estimate   =    -100.66174138 Ry
     estimated scf accuracy    <       0.00000031 Ry

     The total energy is the sum of the following terms:

     one-electron contribution =     -11.38196077 Ry
     hartree contribution      =      20.74380284 Ry
     xc contribution           =     -41.83372893 Ry
     ewald contribution        =     -68.18693061 Ry
     smearing contrib. (-TS)   =      -0.00292401 Ry

     total magnetization       =     0.58 Bohr mag/cell
     absolute magnetization    =     0.69 Bohr mag/cell

     convergence has been achieved in   8 iterations

     Forces acting on atoms (Ry/au):

     atom    1 type  1   force =     0.00000000    0.00000000    0.00000000

     Total force =     0.000000     Total SCF correction =     0.000000
 !ASE
  python dir          : /home/vossj/suncat/lib/python2.7/site-packages/espresso
  espresso dir        : /home/vossj/suncat/esdld/espresso-dynpy-beef/bin
  pseudo dir          : /home/vossj/suncat/esdld/psp
  ase-espresso py git : ffa2778-git



     Writing output data file calc.save
 
     init_run     :      2.22s CPU      0.42s WALL (       1 calls)
     electrons    :     44.30s CPU      3.06s WALL (       1 calls)
     forces       :      2.11s CPU      0.14s WALL (       1 calls)

     Called by init_run:
     wfcinit      :      1.68s CPU      0.12s WALL (       1 calls)
     potinit      :      0.04s CPU      0.05s WALL (       1 calls)

     Called by electrons:
     c_bands      :     25.04s CPU      1.72s WALL (       9 calls)
     sum_band     :     10.22s CPU      0.71s WALL (       9 calls)
     v_of_rho     :      4.84s CPU      0.38s WALL (       9 calls)
     newd         :      4.00s CPU      0.30s WALL (       9 calls)
     mix_rho      :      0.27s CPU      0.02s WALL (       9 calls)

     Called by c_bands:
     init_us_2    :      0.48s CPU      0.03s WALL (     320 calls)
     cegterg      :     23.48s CPU      1.62s WALL (     144 calls)

     Called by *egterg:
     h_psi        :     20.33s CPU      1.40s WALL (     437 calls)
     s_psi        :      0.19s CPU      0.01s WALL (     437 calls)
     g_psi        :      0.24s CPU      0.01s WALL (     277 calls)
     cdiaghg      :      2.39s CPU      0.17s WALL (     405 calls)

     Called by h_psi:
     add_vuspsi   :      0.36s CPU      0.02s WALL (     437 calls)

     General routines
     calbec       :      2.43s CPU      0.18s WALL (     597 calls)
     fft          :      1.35s CPU      0.10s WALL (     296 calls)
     ffts         :      0.06s CPU      0.00s WALL (      36 calls)
     fftw         :     17.18s CPU      1.18s WALL (   12346 calls)
     interpolate  :      0.27s CPU      0.02s WALL (      36 calls)
     davcio       :      0.02s CPU      0.00s WALL (      16 calls)
 
     Parallel routines
     fft_scatter  :      2.64s CPU      0.18s WALL (   12678 calls)
 
     PWSCF        :    50.55s CPU         3.98s WALL

 
   This run was terminated on:  11:22:57  10Mar2017            

=------------------------------------------------------------------------------=
   JOB DONE.
=------------------------------------------------------------------------------=
--------------------------------------------------------------------------
WARNING: It appears that your OpenFabrics subsystem is configured to only
allow registering part of your physical memory.  This can cause MPI jobs to
run with erratic performance, hang, and/or crash.

This may be caused by your OpenFabrics vendor limiting the amount of
physical memory that can be registered.  You should investigate the
relevant Linux kernel module parameters that control how much physical
memory can be registered, and increase them to allow registering all
physical memory on your machine.

See this Open MPI FAQ item for more information on these Linux kernel module
parameters:

    http://www.open-mpi.org/faq/?category=openfabrics#ib-locked-pages

  Local host:              sherlock-ln03
  Registerable memory:     16384 MiB
  Total memory:            65314 MiB

Your MPI job will continue, but may be behave poorly and/or hang.
--------------------------------------------------------------------------

     Program PWSCF v.5.1rc2 (svn rev. ) starts on 10Mar2017 at 11:22:58 

     This program is part of the open-source Quantum ESPRESSO suite
     for quantum simulation of materials; please cite
         "P. Giannozzi et al., J. Phys.:Condens. Matter 21 395502 (2009);
          URL http://www.quantum-espresso.org", 
     in publications or presentations arising from this work. More details at
     http://www.quantum-espresso.org/quote

     Parallel version (MPI), running on     1 processors
     Reading input from pw.inp
     Message from routine read_cards :
     DEPRECATED: no units specified in CELL_PARAMETERS card

     Current dimensions of program PWSCF are:
     Max number of different atomic species (ntypx) = 10
     Max number of k-points (npk) =  40000
     Max angular momentum in pseudopotentials (lmaxx) =  3

     IMPORTANT: XC functional enforced from input :
     Exchange-correlation      = RPBE ( 1  4 28  4 0)
     Any further DFT definition will be discarded
     Please, verify this is what you really want

               file Ni.UPF: wavefunction(s)  3D renormalized

     Subspace diagonalization in iterative solution of the eigenvalue problem:
     a serial algorithm will be used

 
     G-vector sticks info
     --------------------
     sticks:   dense  smooth     PW     G-vecs:    dense   smooth      PW
     Sum         685     271     91                11935     2975     609
 
     Generating pointlists ...
     new r_m :   0.4125 (alat units)  0.7795 (a.u.) for type    1


     bravais-lattice index     =            0
     lattice parameter (alat)  =       1.8897  a.u.
     unit-cell volume          =      76.0003 (a.u.)^3
     number of atoms/cell      =            1
     number of atomic types    =            1
     number of electrons       =        10.00
     number of Kohn-Sham states=           15
     kinetic-energy cutoff     =      44.0992  Ry
     charge density cutoff     =     440.9919  Ry
     convergence threshold     =      7.3E-07
     mixing beta               =       0.1000
     number of iterations used =           10  plain     mixing
     Exchange-correlation      = RPBE ( 1  4 28  4 0)
     nstep                     =           50


     celldm(1)=   1.889726  celldm(2)=   0.000000  celldm(3)=   0.000000
     celldm(4)=   0.000000  celldm(5)=   0.000000  celldm(6)=   0.000000

     crystal axes: (cart. coord. in units of alat)
               a(1) = (   0.000000   1.779083   1.779083 )  
               a(2) = (   1.779083   0.000000   1.779083 )  
               a(3) = (   1.779083   1.779083   0.000000 )  

     reciprocal axes: (cart. coord. in units 2 pi/alat)
               b(1) = ( -0.281044  0.281044  0.281044 )  
               b(2) = (  0.281044 -0.281044  0.281044 )  
               b(3) = (  0.281044  0.281044 -0.281044 )  


     PseudoPot. # 1 for Ni read from file:
     /home/vossj/suncat/esdld/psp/Ni.UPF
     MD5 check sum: 8b2449ee0060d9c33484ccd47bb60870
     Pseudo is Ultrasoft + core correction, Zval = 10.0
     Generated using "atomic" code by A. Dal Corso  v.5.0.2 svn rev. 9415
     Using radial grid of 1195 points,  6 beta functions with: 
                l(1) =   0
                l(2) =   0
                l(3) =   1
                l(4) =   1
                l(5) =   2
                l(6) =   2
     Q(r) pseudized with 0 coefficients 


     atomic species   valence    mass     pseudopotential
        Ni1           10.00    58.69340     Ni( 1.00)

     Starting magnetic structure 
     atomic species   magnetization
        Ni1          0.200

     48 Sym. Ops., with inversion, found



   Cartesian axes

     site n.     atom                  positions (alat units)
         1           Ni1 tau(   1) = (   0.0000000   0.0000000   0.0000000  )

     number of k points=    20  Fermi-Dirac smearing, width (Ry)=  0.0073
                       cart. coord. in units 2pi/alat
        k(    1) = (   0.0000000   0.0000000   0.0000000), wk =   0.0080000
        k(    2) = (   0.0562087   0.0562087  -0.0562087), wk =   0.0640000
        k(    3) = (   0.1124174   0.1124174  -0.1124174), wk =   0.0640000
        k(    4) = (   0.1124174   0.0000000   0.0000000), wk =   0.0480000
        k(    5) = (   0.1686262   0.0562087  -0.0562087), wk =   0.1920000
        k(    6) = (  -0.0562087  -0.1686262   0.1686262), wk =   0.1920000
        k(    7) = (   0.0000000  -0.1124174   0.1124174), wk =   0.0960000
        k(    8) = (   0.2248349   0.0000000   0.0000000), wk =   0.0480000
        k(    9) = (   0.0000000  -0.2248349   0.2248349), wk =   0.0960000
        k(   10) = (  -0.0562087  -0.1686262   0.2810436), wk =   0.1920000
        k(   11) = (   0.0000000   0.0000000   0.0000000), wk =   0.0080000
        k(   12) = (   0.0562087   0.0562087  -0.0562087), wk =   0.0640000
        k(   13) = (   0.1124174   0.1124174  -0.1124174), wk =   0.0640000
        k(   14) = (   0.1124174   0.0000000   0.0000000), wk =   0.0480000
        k(   15) = (   0.1686262   0.0562087  -0.0562087), wk =   0.1920000
        k(   16) = (  -0.0562087  -0.1686262   0.1686262), wk =   0.1920000
        k(   17) = (   0.0000000  -0.1124174   0.1124174), wk =   0.0960000
        k(   18) = (   0.2248349   0.0000000   0.0000000), wk =   0.0480000
        k(   19) = (   0.0000000  -0.2248349   0.2248349), wk =   0.0960000
        k(   20) = (  -0.0562087  -0.1686262   0.2810436), wk =   0.1920000

     Dense  grid:    11935 G-vectors     FFT dimensions: (  32,  32,  32)

     Smooth grid:     2975 G-vectors     FFT dimensions: (  24,  24,  24)

     Largest allocated arrays     est. size (Mb)     dimensions
        Kohn-Sham Wavefunctions         0.09 Mb     (     384,   15)
        NL pseudopotentials             0.11 Mb     (     384,   18)
        Each V/rho on FFT grid          1.00 Mb     (   32768,   2)
        Each G-vector array             0.09 Mb     (   11935)
        G-vector shells                 0.00 Mb     (     170)
     Largest temporary arrays     est. size (Mb)     dimensions
        Auxiliary wavefunctions         0.35 Mb     (     384,   60)
        Each subspace H/S matrix        0.05 Mb     (      60,   60)
        Each <psi_i|beta_j> matrix      0.00 Mb     (      18,   15)
        Arrays for rho mixing           5.00 Mb     (   32768,   10)

     Initial potential from superposition of free atoms

     starting charge    9.99975, renormalised to   10.00000
     Starting wfc are    9 randomized atomic wfcs +    6 random wfc

     total cpu time spent up to now is        0.6 secs

     Self-consistent Calculation

     iteration #  1     ecut=    44.10 Ry     beta=0.10
     Davidson diagonalization with overlap
     ethr =  1.00E-02,  avg # of iterations =  5.4

     Threshold (ethr) on eigenvalues was too large:
     Diagonalizing with lowered threshold

     Davidson diagonalization with overlap
     ethr =  1.72E-04,  avg # of iterations =  1.2
 
     Magnetic moment per site:
     atom:    1    charge:    3.9624    magn:    0.7666    constr:    0.0000

     total cpu time spent up to now is        1.6 secs

     total energy              =    -100.64142579 Ry
     Harris-Foulkes estimate   =    -100.63973750 Ry
     estimated scf accuracy    <       0.01738942 Ry

     total magnetization       =     1.04 Bohr mag/cell
     absolute magnetization    =     1.04 Bohr mag/cell

     iteration #  2     ecut=    44.10 Ry     beta=0.10
     Davidson diagonalization with overlap
     ethr =  1.74E-04,  avg # of iterations =  1.0
 
     Magnetic moment per site:
     atom:    1    charge:    3.9745    magn:    0.6932    constr:    0.0000

     total cpu time spent up to now is        2.0 secs

     total energy              =    -100.64681204 Ry
     Harris-Foulkes estimate   =    -100.64157598 Ry
     estimated scf accuracy    <       0.01161294 Ry

     total magnetization       =     1.04 Bohr mag/cell
     absolute magnetization    =     1.04 Bohr mag/cell

     iteration #  3     ecut=    44.10 Ry     beta=0.10
     Davidson diagonalization with overlap
     ethr =  1.16E-04,  avg # of iterations =  1.0
 
     Magnetic moment per site:
     atom:    1    charge:    3.9728    magn:    0.5579    constr:    0.0000

     total cpu time spent up to now is        2.4 secs

     total energy              =    -100.65226012 Ry
     Harris-Foulkes estimate   =    -100.64740581 Ry
     estimated scf accuracy    <       0.00446381 Ry

     total magnetization       =     1.04 Bohr mag/cell
     absolute magnetization    =     1.04 Bohr mag/cell

     iteration #  4     ecut=    44.10 Ry     beta=0.10
     Davidson diagonalization with overlap
     ethr =  4.46E-05,  avg # of iterations =  1.0
 
     Magnetic moment per site:
     atom:    1    charge:    3.9763    magn:    0.5391    constr:    0.0000

     total cpu time spent up to now is        2.8 secs

     total energy              =    -100.65301779 Ry
     Harris-Foulkes estimate   =    -100.65294557 Ry
     estimated scf accuracy    <       0.00035263 Ry

     total magnetization       =     0.96 Bohr mag/cell
     absolute magnetization    =     0.98 Bohr mag/cell

     iteration #  5     ecut=    44.10 Ry     beta=0.10
     Davidson diagonalization with overlap
     ethr =  3.53E-06,  avg # of iterations =  1.5
 
     Magnetic moment per site:
     atom:    1    charge:    3.9760    magn:    0.5372    constr:    0.0000

     total cpu time spent up to now is        3.2 secs

     total energy              =    -100.65313203 Ry
     Harris-Foulkes estimate   =    -100.65307552 Ry
     estimated scf accuracy    <       0.00001375 Ry

     total magnetization       =     0.95 Bohr mag/cell
     absolute magnetization    =     0.98 Bohr mag/cell

     iteration #  6     ecut=    44.10 Ry     beta=0.10
     Davidson diagonalization with overlap
     ethr =  1.38E-07,  avg # of iterations =  2.8
 
     Magnetic moment per site:
     atom:    1    charge:    3.9763    magn:    0.5397    constr:    0.0000

     total cpu time spent up to now is        3.6 secs

     total energy              =    -100.65315598 Ry
     Harris-Foulkes estimate   =    -100.65315111 Ry
     estimated scf accuracy    <       0.00000637 Ry

     total magnetization       =     0.94 Bohr mag/cell
     absolute magnetization    =     0.99 Bohr mag/cell

     iteration #  7     ecut=    44.10 Ry     beta=0.10
     Davidson diagonalization with overlap
     ethr =  6.37E-08,  avg # of iterations =  1.6
 
     Magnetic moment per site:
     atom:    1    charge:    3.9763    magn:    0.5390    constr:    0.0000

     total cpu time spent up to now is        4.1 secs

     total energy              =    -100.65315906 Ry
     Harris-Foulkes estimate   =    -100.65315940 Ry
     estimated scf accuracy    <       0.00001012 Ry

     total magnetization       =     0.94 Bohr mag/cell
     absolute magnetization    =     0.99 Bohr mag/cell

     iteration #  8     ecut=    44.10 Ry     beta=0.10
     Davidson diagonalization with overlap
     ethr =  6.37E-08,  avg # of iterations =  1.0
 
     Magnetic moment per site:
     atom:    1    charge:    3.9758    magn:    0.5462    constr:    0.0000

     total cpu time spent up to now is        4.5 secs

     total energy              =    -100.65315861 Ry
     Harris-Foulkes estimate   =    -100.65315909 Ry
     estimated scf accuracy    <       0.00001187 Ry

     total magnetization       =     0.94 Bohr mag/cell
     absolute magnetization    =     0.99 Bohr mag/cell

     iteration #  9     ecut=    44.10 Ry     beta=0.10
     Davidson diagonalization with overlap
     ethr =  6.37E-08,  avg # of iterations =  1.3
 
     Magnetic moment per site:
     atom:    1    charge:    3.9762    magn:    0.5462    constr:    0.0000

     total cpu time spent up to now is        4.8 secs

     End of self-consistent calculation

 ------ SPIN UP ------------


          k = 0.0000 0.0000 0.0000 (   339 PWs)   bands (ev):

     4.2328  10.6676  10.6676  10.6676  11.7377  11.7377  36.8314  40.2547
    40.2547  40.2547  42.5340  42.5340  42.5340  45.9670  52.1489

          k = 0.0562 0.0562-0.0562 (   362 PWs)   bands (ev):

     5.6844  10.3984  10.8691  10.8691  11.7215  11.7215  29.5967  37.1907
    38.2023  38.2023  44.3801  44.5345  44.5345  48.0977  48.0977

          k = 0.1124 0.1124-0.1124 (   368 PWs)   bands (ev):

     8.1558  10.7161  10.7161  11.5488  12.2536  12.2536  20.5745  35.5470
    37.2494  37.2494  40.4367  40.4367  45.6278  55.6059  55.6059

          k = 0.1124 0.0000 0.0000 (   367 PWs)   bands (ev):

     6.1447  10.0589  11.1955  11.1955  11.2507  11.9628  33.4738  33.4738
    34.0625  35.0422  39.5738  49.6363  49.9922  49.9922  53.5158

          k = 0.1686 0.0562-0.0562 (   384 PWs)   bands (ev):

     8.4304   9.8067  10.6563  11.3191  12.3471  12.9269  24.1582  30.9036
    31.6552  34.8367  42.8482  47.9827  48.1873  52.9903  59.2324

          k =-0.0562-0.1686 0.1686 (   382 PWs)   bands (ev):

     9.0767  10.1355  10.6699  11.1518  12.2098  15.6484  19.2309  27.8488
    33.3843  35.2378  45.3671  45.8842  52.9329  53.5112  54.6277

          k = 0.0000-0.1124 0.1124 (   371 PWs)   bands (ev):

     7.7287  10.0663  10.6743  11.3161  11.3633  12.7476  26.9204  27.8585
    38.0295  38.2487  42.6485  44.7136  45.7494  50.5750  55.2878

          k = 0.2248 0.0000 0.0000 (   383 PWs)   bands (ev):

     8.5255   9.1387  12.2935  12.2935  12.3387  13.4331  24.8507  28.3687
    28.3687  32.3498  35.8139  57.1953  58.7034  58.7034  60.6779

          k = 0.0000-0.2248 0.2248 (   373 PWs)   bands (ev):

     8.9869   9.2942  11.3176  12.0461  12.3714  17.6746  21.6091  22.5838
    29.0676  33.8025  41.5774  52.8649  54.3498  58.0391  59.2352

          k =-0.0562-0.1686 0.2810 (   383 PWs)   bands (ev):

     9.3924   9.7404  10.2780  11.7729  12.2871  16.5072  22.7198  24.4022
    26.3633  40.5036  42.0769  45.7961  54.0472  56.5882  59.8324

 ------ SPIN DOWN ----------


          k = 0.0000 0.0000 0.0000 (   339 PWs)   bands (ev):

     4.2709  11.6645  11.6645  11.6645  12.6579  12.6579  36.7064  40.3350
    40.3350  40.3350  42.7455  42.7455  42.7455  45.8635  52.4469

          k = 0.0562 0.0562-0.0562 (   362 PWs)   bands (ev):

     5.7331  11.3252  11.8540  11.8540  12.6591  12.6591  29.8070  37.1132
    38.3931  38.3931  44.3959  44.6205  44.6205  48.3808  48.3808

          k = 0.1124 0.1124-0.1124 (   368 PWs)   bands (ev):

     8.6005  11.6238  11.6238  11.8740  13.2902  13.2902  21.0091  35.4389
    37.4610  37.4610  40.5914  40.5914  45.8115  55.7763  55.7763

          k = 0.1124 0.0000 0.0000 (   367 PWs)   bands (ev):

     6.1959  10.9921  12.1016  12.2179  12.2179  12.8951  33.6638  33.6638
    34.1823  35.0589  39.9320  49.6714  49.9605  49.9605  53.5050

          k = 0.1686 0.0562-0.0562 (   384 PWs)   bands (ev):

     8.7069  10.6145  11.4971  12.2763  13.3754  13.7599  24.4415  31.0645
    31.8328  35.0171  43.0368  47.9898  48.2943  53.1385  59.3568

          k =-0.0562-0.1686 0.1686 (   382 PWs)   bands (ev):

     9.7381  10.8024  11.4616  12.0592  13.2679  16.1345  19.7056  28.0605
    33.5755  35.3380  45.5086  45.9161  53.1022  53.6595  54.8242

          k = 0.0000-0.1124 0.1124 (   371 PWs)   bands (ev):

     7.8507  10.9517  11.5467  12.1940  12.4085  13.7069  27.1959  28.0569
    38.0773  38.4509  42.6254  44.8584  45.9807  50.7894  55.3554

          k = 0.2248 0.0000 0.0000 (   383 PWs)   bands (ev):

     9.0205   9.9862  13.2918  13.3962  13.3962  13.6741  25.1516  28.4907
    28.4907  32.6131  36.0701  57.2623  58.7081  58.7081  60.6615

          k = 0.0000-0.2248 0.2248 (   373 PWs)   bands (ev):

     9.6096  10.0953  12.1693  12.9694  13.4867  17.9797  21.9096  22.9252
    29.2043  34.0099  41.7728  52.9056  54.3263  58.2960  59.3656

          k =-0.0562-0.1686 0.2810 (   383 PWs)   bands (ev):

     9.9645  10.5714  11.0697  12.6651  13.3913  16.9918  23.0088  24.6462
    26.6115  40.5969  42.2187  45.9623  54.2228  56.5604  59.8961

     the Fermi energy is    13.2648 ev

!    total energy              =    -100.65316068 Ry
     Harris-Foulkes estimate   =    -100.65316072 Ry
     estimated scf accuracy    <       0.00000021 Ry

     The total energy is the sum of the following terms:

     one-electron contribution =     -11.36096565 Ry
     hartree contribution      =      20.74625404 Ry
     xc contribution           =     -41.84678341 Ry
     ewald contribution        =     -68.18693061 Ry
     smearing contrib. (-TS)   =      -0.00473505 Ry

     total magnetization       =     0.95 Bohr mag/cell
     absolute magnetization    =     0.99 Bohr mag/cell

     convergence has been achieved in   9 iterations

     Forces acting on atoms (Ry/au):

     atom    1 type  1   force =     0.00000000    0.00000000    0.00000000

     Total force =     0.000000     Total SCF correction =     0.000000
 !ASE
  python dir          : /home/vossj/suncat/lib/python2.7/site-packages/espresso
  espresso dir        : /home/vossj/suncat/esdld/espresso-dynpy-beef/bin
  pseudo dir          : /home/vossj/suncat/esdld/psp
  ase-espresso py git : ffa2778-git



     Writing output data file calc.save
 
     init_run     :      2.18s CPU      0.41s WALL (       1 calls)
     electrons    :     58.96s CPU      4.16s WALL (       1 calls)
     forces       :      2.06s CPU      0.14s WALL (       1 calls)

     Called by init_run:
     wfcinit      :      1.61s CPU      0.11s WALL (       1 calls)
     potinit      :      0.04s CPU      0.04s WALL (       1 calls)

     Called by electrons:
     c_bands      :     33.51s CPU      2.36s WALL (      10 calls)
     sum_band     :     14.18s CPU      1.00s WALL (      10 calls)
     v_of_rho     :      5.67s CPU      0.44s WALL (      10 calls)
     newd         :      4.84s CPU      0.36s WALL (      10 calls)
     mix_rho      :      0.82s CPU      0.06s WALL (      10 calls)

     Called by c_bands:
     init_us_2    :      0.58s CPU      0.05s WALL (     440 calls)
     cegterg      :     31.48s CPU      2.22s WALL (     200 calls)

     Called by *egterg:
     h_psi        :     26.58s CPU      1.88s WALL (     575 calls)
     s_psi        :      0.21s CPU      0.02s WALL (     575 calls)
     g_psi        :      0.33s CPU      0.02s WALL (     355 calls)
     cdiaghg      :      3.09s CPU      0.22s WALL (     535 calls)

     Called by h_psi:
     add_vuspsi   :      0.54s CPU      0.03s WALL (     575 calls)

     General routines
     calbec       :      3.29s CPU      0.25s WALL (     795 calls)
     fft          :      1.53s CPU      0.12s WALL (     327 calls)
     ffts         :      0.08s CPU      0.01s WALL (      40 calls)
     fftw         :     23.07s CPU      1.64s WALL (   16898 calls)
     interpolate  :      0.31s CPU      0.02s WALL (      40 calls)
     davcio       :      0.02s CPU      0.00s WALL (      20 calls)
 
     Parallel routines
     fft_scatter  :      3.39s CPU      0.24s WALL (   17265 calls)
 
     PWSCF        :  1m 5.47s CPU     0m 5.07s WALL

 
   This run was terminated on:  11:23: 3  10Mar2017            

=------------------------------------------------------------------------------=
   JOB DONE.
=------------------------------------------------------------------------------=
--------------------------------------------------------------------------
WARNING: It appears that your OpenFabrics subsystem is configured to only
allow registering part of your physical memory.  This can cause MPI jobs to
run with erratic performance, hang, and/or crash.

This may be caused by your OpenFabrics vendor limiting the amount of
physical memory that can be registered.  You should investigate the
relevant Linux kernel module parameters that control how much physical
memory can be registered, and increase them to allow registering all
physical memory on your machine.

See this Open MPI FAQ item for more information on these Linux kernel module
parameters:

    http://www.open-mpi.org/faq/?category=openfabrics#ib-locked-pages

  Local host:              sherlock-ln03
  Registerable memory:     16384 MiB
  Total memory:            65314 MiB

Your MPI job will continue, but may be behave poorly and/or hang.
--------------------------------------------------------------------------

     Program PWSCF v.5.1rc2 (svn rev. ) starts on 10Mar2017 at 11:23: 3 

     This program is part of the open-source Quantum ESPRESSO suite
     for quantum simulation of materials; please cite
         "P. Giannozzi et al., J. Phys.:Condens. Matter 21 395502 (2009);
          URL http://www.quantum-espresso.org", 
     in publications or presentations arising from this work. More details at
     http://www.quantum-espresso.org/quote

     Parallel version (MPI), running on     1 processors
     Reading input from pw.inp
     Message from routine read_cards :
     DEPRECATED: no units specified in CELL_PARAMETERS card

     Current dimensions of program PWSCF are:
     Max number of different atomic species (ntypx) = 10
     Max number of k-points (npk) =  40000
     Max angular momentum in pseudopotentials (lmaxx) =  3

     IMPORTANT: XC functional enforced from input :
     Exchange-correlation      = RPBE ( 1  4 28  4 0)
     Any further DFT definition will be discarded
     Please, verify this is what you really want

               file Ni.UPF: wavefunction(s)  3D renormalized

     Subspace diagonalization in iterative solution of the eigenvalue problem:
     a serial algorithm will be used

 
     G-vector sticks info
     --------------------
     sticks:   dense  smooth     PW     G-vecs:    dense   smooth      PW
     Sum         685     271     91                11935     2975     609
 
     Generating pointlists ...
     new r_m :   0.4125 (alat units)  0.7795 (a.u.) for type    1


     bravais-lattice index     =            0
     lattice parameter (alat)  =       1.8897  a.u.
     unit-cell volume          =      76.0003 (a.u.)^3
     number of atoms/cell      =            1
     number of atomic types    =            1
     number of electrons       =        10.00
     number of Kohn-Sham states=           15
     kinetic-energy cutoff     =      44.0992  Ry
     charge density cutoff     =     440.9919  Ry
     convergence threshold     =      7.3E-07
     mixing beta               =       0.1000
     number of iterations used =           10  plain     mixing
     Exchange-correlation      = RPBE ( 1  4 28  4 0)
     nstep                     =           50


     celldm(1)=   1.889726  celldm(2)=   0.000000  celldm(3)=   0.000000
     celldm(4)=   0.000000  celldm(5)=   0.000000  celldm(6)=   0.000000

     crystal axes: (cart. coord. in units of alat)
               a(1) = (   0.000000   1.779083   1.779083 )  
               a(2) = (   1.779083   0.000000   1.779083 )  
               a(3) = (   1.779083   1.779083   0.000000 )  

     reciprocal axes: (cart. coord. in units 2 pi/alat)
               b(1) = ( -0.281044  0.281044  0.281044 )  
               b(2) = (  0.281044 -0.281044  0.281044 )  
               b(3) = (  0.281044  0.281044 -0.281044 )  


     PseudoPot. # 1 for Ni read from file:
     /home/vossj/suncat/esdld/psp/Ni.UPF
     MD5 check sum: 8b2449ee0060d9c33484ccd47bb60870
     Pseudo is Ultrasoft + core correction, Zval = 10.0
     Generated using "atomic" code by A. Dal Corso  v.5.0.2 svn rev. 9415
     Using radial grid of 1195 points,  6 beta functions with: 
                l(1) =   0
                l(2) =   0
                l(3) =   1
                l(4) =   1
                l(5) =   2
                l(6) =   2
     Q(r) pseudized with 0 coefficients 


     atomic species   valence    mass     pseudopotential
        Ni1           10.00    58.69340     Ni( 1.00)

     Starting magnetic structure 
     atomic species   magnetization
        Ni1          0.200

     48 Sym. Ops., with inversion, found



   Cartesian axes

     site n.     atom                  positions (alat units)
         1           Ni1 tau(   1) = (   0.0000000   0.0000000   0.0000000  )

     number of k points=    32  Fermi-Dirac smearing, width (Ry)=  0.0073
                       cart. coord. in units 2pi/alat
        k(    1) = (   0.0000000   0.0000000   0.0000000), wk =   0.0046296
        k(    2) = (   0.0468406   0.0468406  -0.0468406), wk =   0.0370370
        k(    3) = (   0.0936812   0.0936812  -0.0936812), wk =   0.0370370
        k(    4) = (  -0.1405218  -0.1405218   0.1405218), wk =   0.0185185
        k(    5) = (   0.0936812   0.0000000   0.0000000), wk =   0.0277778
        k(    6) = (   0.1405218   0.0468406  -0.0468406), wk =   0.1111111
        k(    7) = (  -0.0936812  -0.1873624   0.1873624), wk =   0.1111111
        k(    8) = (  -0.0468406  -0.1405218   0.1405218), wk =   0.1111111
        k(    9) = (   0.0000000  -0.0936812   0.0936812), wk =   0.0555556
        k(   10) = (   0.1873624   0.0000000   0.0000000), wk =   0.0277778
        k(   11) = (  -0.0468406  -0.2342030   0.2342030), wk =   0.1111111
        k(   12) = (  -0.0000000  -0.1873624   0.1873624), wk =   0.0555556
        k(   13) = (  -0.2810436   0.0000000   0.0000000), wk =   0.0138889
        k(   14) = (  -0.0936812  -0.1873624   0.2810436), wk =   0.1111111
        k(   15) = (  -0.0468406  -0.1405218   0.2342030), wk =   0.1111111
        k(   16) = (  -0.2810436   0.0936812   0.0000000), wk =   0.0555556
        k(   17) = (   0.0000000   0.0000000   0.0000000), wk =   0.0046296
        k(   18) = (   0.0468406   0.0468406  -0.0468406), wk =   0.0370370
        k(   19) = (   0.0936812   0.0936812  -0.0936812), wk =   0.0370370
        k(   20) = (  -0.1405218  -0.1405218   0.1405218), wk =   0.0185185
        k(   21) = (   0.0936812   0.0000000   0.0000000), wk =   0.0277778
        k(   22) = (   0.1405218   0.0468406  -0.0468406), wk =   0.1111111
        k(   23) = (  -0.0936812  -0.1873624   0.1873624), wk =   0.1111111
        k(   24) = (  -0.0468406  -0.1405218   0.1405218), wk =   0.1111111
        k(   25) = (   0.0000000  -0.0936812   0.0936812), wk =   0.0555556
        k(   26) = (   0.1873624   0.0000000   0.0000000), wk =   0.0277778
        k(   27) = (  -0.0468406  -0.2342030   0.2342030), wk =   0.1111111
        k(   28) = (  -0.0000000  -0.1873624   0.1873624), wk =   0.0555556
        k(   29) = (  -0.2810436   0.0000000   0.0000000), wk =   0.0138889
        k(   30) = (  -0.0936812  -0.1873624   0.2810436), wk =   0.1111111
        k(   31) = (  -0.0468406  -0.1405218   0.2342030), wk =   0.1111111
        k(   32) = (  -0.2810436   0.0936812   0.0000000), wk =   0.0555556

     Dense  grid:    11935 G-vectors     FFT dimensions: (  32,  32,  32)

     Smooth grid:     2975 G-vectors     FFT dimensions: (  24,  24,  24)

     Largest allocated arrays     est. size (Mb)     dimensions
        Kohn-Sham Wavefunctions         0.09 Mb     (     388,   15)
        NL pseudopotentials             0.11 Mb     (     388,   18)
        Each V/rho on FFT grid          1.00 Mb     (   32768,   2)
        Each G-vector array             0.09 Mb     (   11935)
        G-vector shells                 0.00 Mb     (     170)
     Largest temporary arrays     est. size (Mb)     dimensions
        Auxiliary wavefunctions         0.36 Mb     (     388,   60)
        Each subspace H/S matrix        0.05 Mb     (      60,   60)
[...]

          k = 0.0000-0.1686 0.2248 (   380 PWs)   bands (ev):

    10.0645  10.3171  11.2268  12.5298  13.3141  19.1145  20.1537  23.3275
    28.2350  37.4589  46.5834  46.9332  51.9455  54.7529  59.6576

          k =-0.2810 0.0562 0.0000 (   372 PWs)   bands (ev):

     9.3130   9.9127  12.5214  13.0704  13.5621  16.9044  22.4041  25.4698
    26.2522  35.1928  38.3735  53.0195  58.4206  60.4644  63.2363

          k =-0.0562-0.1686 0.2810 (   383 PWs)   bands (ev):

     9.9094  10.4967  10.9986  12.5976  13.3029  16.9323  22.9584  24.5988
    26.5639  40.5568  42.1747  45.9184  54.1779  56.5260  59.8584

          k =-0.0281-0.1405 0.2529 (   378 PWs)   bands (ev):

    10.0554  10.6063  10.8991  12.4802  13.4403  19.4007  20.2185  24.6502
    25.3584  41.3101  42.8937  47.0118  50.4409  57.6584  61.0498

          k =-0.2810 0.1124 0.0000 (   382 PWs)   bands (ev):

     9.8389  10.4163  11.2904  12.6000  13.5629  19.3945  22.3047  22.8119
    24.4095  40.1762  43.3447  46.1788  51.6328  61.7853  63.3461

     the Fermi energy is    13.1779 ev

!    total energy              =    -100.65720106 Ry
     Harris-Foulkes estimate   =    -100.65720088 Ry
     estimated scf accuracy    <       0.00000013 Ry

     The total energy is the sum of the following terms:

     one-electron contribution =     -11.39026037 Ry
     hartree contribution      =      20.76650355 Ry
     xc contribution           =     -41.84258912 Ry
     ewald contribution        =     -68.18693061 Ry
     smearing contrib. (-TS)   =      -0.00392452 Ry

     total magnetization       =     0.69 Bohr mag/cell
     absolute magnetization    =     0.78 Bohr mag/cell

     convergence has been achieved in   9 iterations

     Forces acting on atoms (Ry/au):

     atom    1 type  1   force =     0.00000000    0.00000000    0.00000000

     Total force =     0.000000     Total SCF correction =     0.000000
 !ASE
  python dir          : /home/vossj/suncat/lib/python2.7/site-packages/espresso
  espresso dir        : /home/vossj/suncat/esdld/espresso-dynpy-beef/bin
  pseudo dir          : /home/vossj/suncat/esdld/psp
  ase-espresso py git : ffa2778-git



     Writing output data file calc.save
 
     init_run     :      8.27s CPU      0.85s WALL (       1 calls)
     electrons    :    203.83s CPU     13.86s WALL (       1 calls)
     forces       :      2.49s CPU      0.17s WALL (       1 calls)

     Called by init_run:
     wfcinit      :      7.63s CPU      0.54s WALL (       1 calls)
     potinit      :      0.04s CPU      0.04s WALL (       1 calls)

     Called by electrons:
     c_bands      :    155.03s CPU     10.55s WALL (      10 calls)
     sum_band     :     38.37s CPU      2.60s WALL (      10 calls)
     v_of_rho     :      5.87s CPU      0.43s WALL (      10 calls)
     newd         :      4.35s CPU      0.32s WALL (      10 calls)
     mix_rho      :      0.32s CPU      0.02s WALL (      10 calls)

     Called by c_bands:
     init_us_2    :      2.94s CPU      0.21s WALL (    2068 calls)
     cegterg      :    145.29s CPU      9.91s WALL (     940 calls)

     Called by *egterg:
     h_psi        :    121.98s CPU      8.40s WALL (    2729 calls)
     s_psi        :      1.10s CPU      0.08s WALL (    2729 calls)
     g_psi        :      1.59s CPU      0.09s WALL (    1695 calls)
     cdiaghg      :     14.89s CPU      0.99s WALL (    2541 calls)

     Called by h_psi:
     add_vuspsi   :      1.97s CPU      0.11s WALL (    2729 calls)

     General routines
     calbec       :      5.39s CPU      0.42s WALL (    3763 calls)
     fft          :      1.57s CPU      0.12s WALL (     327 calls)
     ffts         :      0.08s CPU      0.01s WALL (      40 calls)
     fftw         :    112.12s CPU      7.73s WALL (   79446 calls)
     interpolate  :      0.34s CPU      0.02s WALL (      40 calls)
     davcio       :      0.07s CPU      0.01s WALL (      94 calls)
 
     Parallel routines
     fft_scatter  :     14.39s CPU      1.00s WALL (   79813 calls)
 
     PWSCF        :  3m37.26s CPU     0m15.27s WALL

 
   This run was terminated on:  11:24: 0  10Mar2017            

=------------------------------------------------------------------------------=
   JOB DONE.
=------------------------------------------------------------------------------=
--------------------------------------------------------------------------
WARNING: It appears that your OpenFabrics subsystem is configured to only
allow registering part of your physical memory.  This can cause MPI jobs to
run with erratic performance, hang, and/or crash.

This may be caused by your OpenFabrics vendor limiting the amount of
physical memory that can be registered.  You should investigate the
relevant Linux kernel module parameters that control how much physical
memory can be registered, and increase them to allow registering all
physical memory on your machine.

See this Open MPI FAQ item for more information on these Linux kernel module
parameters:

    http://www.open-mpi.org/faq/?category=openfabrics#ib-locked-pages

  Local host:              sherlock-ln03
  Registerable memory:     16384 MiB
  Total memory:            65314 MiB

Your MPI job will continue, but may be behave poorly and/or hang.
--------------------------------------------------------------------------

     Program PWSCF v.5.1rc2 (svn rev. ) starts on 10Mar2017 at 11:24: 0 

     This program is part of the open-source Quantum ESPRESSO suite
     for quantum simulation of materials; please cite
         "P. Giannozzi et al., J. Phys.:Condens. Matter 21 395502 (2009);
          URL http://www.quantum-espresso.org", 
     in publications or presentations arising from this work. More details at
     http://www.quantum-espresso.org/quote

     Parallel version (MPI), running on     1 processors
     Reading input from pw.inp
     Message from routine read_cards :
     DEPRECATED: no units specified in CELL_PARAMETERS card

     Current dimensions of program PWSCF are:
     Max number of different atomic species (ntypx) = 10
     Max number of k-points (npk) =  40000
     Max angular momentum in pseudopotentials (lmaxx) =  3

     IMPORTANT: XC functional enforced from input :
     Exchange-correlation      = RPBE ( 1  4 28  4 0)
     Any further DFT definition will be discarded
     Please, verify this is what you really want

               file Ni.UPF: wavefunction(s)  3D renormalized

     Subspace diagonalization in iterative solution of the eigenvalue problem:
     a serial algorithm will be used

 
     G-vector sticks info
     --------------------
     sticks:   dense  smooth     PW     G-vecs:    dense   smooth      PW
     Sum         685     271     91                11935     2975     609
 
     Generating pointlists ...
     new r_m :   0.4125 (alat units)  0.7795 (a.u.) for type    1


     bravais-lattice index     =            0
     lattice parameter (alat)  =       1.8897  a.u.
     unit-cell volume          =      76.0003 (a.u.)^3
     number of atoms/cell      =            1
     number of atomic types    =            1
     number of electrons       =        10.00
     number of Kohn-Sham states=           15
     kinetic-energy cutoff     =      44.0992  Ry
     charge density cutoff     =     440.9919  Ry
     convergence threshold     =      7.3E-07
     mixing beta               =       0.1000
     number of iterations used =           10  plain     mixing
     Exchange-correlation      = RPBE ( 1  4 28  4 0)
     nstep                     =           50


     celldm(1)=   1.889726  celldm(2)=   0.000000  celldm(3)=   0.000000
     celldm(4)=   0.000000  celldm(5)=   0.000000  celldm(6)=   0.000000

     crystal axes: (cart. coord. in units of alat)
               a(1) = (   0.000000   1.779083   1.779083 )  
               a(2) = (   1.779083   0.000000   1.779083 )  
               a(3) = (   1.779083   1.779083   0.000000 )  

     reciprocal axes: (cart. coord. in units 2 pi/alat)
               b(1) = ( -0.281044  0.281044  0.281044 )  
               b(2) = (  0.281044 -0.281044  0.281044 )  
               b(3) = (  0.281044  0.281044 -0.281044 )  


     PseudoPot. # 1 for Ni read from file:
     /home/vossj/suncat/esdld/psp/Ni.UPF
     MD5 check sum: 8b2449ee0060d9c33484ccd47bb60870
     Pseudo is Ultrasoft + core correction, Zval = 10.0
     Generated using "atomic" code by A. Dal Corso  v.5.0.2 svn rev. 9415
     Using radial grid of 1195 points,  6 beta functions with: 
                l(1) =   0
                l(2) =   0
                l(3) =   1
                l(4) =   1
                l(5) =   2
                l(6) =   2
     Q(r) pseudized with 0 coefficients 


     atomic species   valence    mass     pseudopotential
        Ni1           10.00    58.69340     Ni( 1.00)

     Starting magnetic structure 
     atomic species   magnetization
        Ni1          0.200

     48 Sym. Ops., with inversion, found



   Cartesian axes

     site n.     atom                  positions (alat units)
         1           Ni1 tau(   1) = (   0.0000000   0.0000000   0.0000000  )

     number of k points=   112  Fermi-Dirac smearing, width (Ry)=  0.0073

     Number of k-points >= 100: set verbosity='high' to print them.

     Dense  grid:    11935 G-vectors     FFT dimensions: (  32,  32,  32)

     Smooth grid:     2975 G-vectors     FFT dimensions: (  24,  24,  24)

     Largest allocated arrays     est. size (Mb)     dimensions
        Kohn-Sham Wavefunctions         0.09 Mb     (     383,   15)
        NL pseudopotentials             0.11 Mb     (     383,   18)
        Each V/rho on FFT grid          1.00 Mb     (   32768,   2)
        Each G-vector array             0.09 Mb     (   11935)
        G-vector shells                 0.00 Mb     (     170)
     Largest temporary arrays     est. size (Mb)     dimensions
        Auxiliary wavefunctions         0.35 Mb     (     383,   60)
        Each subspace H/S matrix        0.05 Mb     (      60,   60)
        Each <psi_i|beta_j> matrix      0.00 Mb     (      18,   15)
        Arrays for rho mixing           5.00 Mb     (   32768,   10)

     Initial potential from superposition of free atoms

     starting charge    9.99975, renormalised to   10.00000
     Starting wfc are    9 randomized atomic wfcs +    6 random wfc

     total cpu time spent up to now is        1.1 secs

     Self-consistent Calculation

     iteration #  1     ecut=    44.10 Ry     beta=0.10
     Davidson diagonalization with overlap
     ethr =  1.00E-02,  avg # of iterations =  5.5

     Threshold (ethr) on eigenvalues was too large:
     Diagonalizing with lowered threshold

     Davidson diagonalization with overlap
     ethr =  2.48E-04,  avg # of iterations =  1.1
 
     Magnetic moment per site:
     atom:    1    charge:    3.9635    magn:    0.7611    constr:    0.0000

     total cpu time spent up to now is        5.9 secs

     total energy              =    -100.63986609 Ry
     Harris-Foulkes estimate   =    -100.63791913 Ry
     estimated scf accuracy    <       0.02496823 Ry

     total magnetization       =     0.90 Bohr mag/cell
     absolute magnetization    =     0.90 Bohr mag/cell

     iteration #  2     ecut=    44.10 Ry     beta=0.10
     Davidson diagonalization with overlap
     ethr =  2.50E-04,  avg # of iterations =  1.0
 
     Magnetic moment per site:
     atom:    1    charge:    3.9761    magn:    0.6775    constr:    0.0000

     total cpu time spent up to now is        7.4 secs

     total energy              =    -100.64632911 Ry
     Harris-Foulkes estimate   =    -100.64011221 Ry
     estimated scf accuracy    <       0.01651036 Ry

     total magnetization       =     0.89 Bohr mag/cell
     absolute magnetization    =     0.89 Bohr mag/cell

     iteration #  3     ecut=    44.10 Ry     beta=0.10
     Davidson diagonalization with overlap
     ethr =  1.65E-04,  avg # of iterations =  1.0
 
     Magnetic moment per site:
     atom:    1    charge:    3.9783    magn:    0.4112    constr:    0.0000

     total cpu time spent up to now is        8.8 secs

     total energy              =    -100.65358168 Ry
     Harris-Foulkes estimate   =    -100.64714592 Ry
     estimated scf accuracy    <       0.00765026 Ry

     total magnetization       =     0.86 Bohr mag/cell
     absolute magnetization    =     0.88 Bohr mag/cell

     iteration #  4     ecut=    44.10 Ry     beta=0.10
     Davidson diagonalization with overlap
     ethr =  7.65E-05,  avg # of iterations =  1.0
 
     Magnetic moment per site:
     atom:    1    charge:    3.9786    magn:    0.4502    constr:    0.0000

     total cpu time spent up to now is       10.2 secs

     total energy              =    -100.65681893 Ry
     Harris-Foulkes estimate   =    -100.65698565 Ry
     estimated scf accuracy    <       0.00015038 Ry

     total magnetization       =     0.60 Bohr mag/cell
     absolute magnetization    =     0.72 Bohr mag/cell

     iteration #  5     ecut=    44.10 Ry     beta=0.10
     Davidson diagonalization with overlap
     ethr =  1.50E-06,  avg # of iterations =  2.0
 
     Magnetic moment per site:
     atom:    1    charge:    3.9766    magn:    0.4024    constr:    0.0000

     total cpu time spent up to now is       11.8 secs

     total energy              =    -100.65701455 Ry
     Harris-Foulkes estimate   =    -100.65686655 Ry
     estimated scf accuracy    <       0.00052925 Ry

     total magnetization       =     0.62 Bohr mag/cell
     absolute magnetization    =     0.74 Bohr mag/cell

     iteration #  6     ecut=    44.10 Ry     beta=0.10
     Davidson diagonalization with overlap
     ethr =  1.50E-06,  avg # of iterations =  1.0
 
     Magnetic moment per site:
     atom:    1    charge:    3.9766    magn:    0.4003    constr:    0.0000

     total cpu time spent up to now is       13.2 secs

     total energy              =    -100.65708129 Ry
     Harris-Foulkes estimate   =    -100.65707341 Ry
     estimated scf accuracy    <       0.00010294 Ry

     total magnetization       =     0.60 Bohr mag/cell
     absolute magnetization    =     0.70 Bohr mag/cell

     iteration #  7     ecut=    44.10 Ry     beta=0.10
     Davidson diagonalization with overlap
     ethr =  1.03E-06,  avg # of iterations =  1.0
 
     Magnetic moment per site:
     atom:    1    charge:    3.9766    magn:    0.4006    constr:    0.0000

     total cpu time spent up to now is       14.7 secs

     total energy              =    -100.65708058 Ry
     Harris-Foulkes estimate   =    -100.65708151 Ry
     estimated scf accuracy    <       0.00009051 Ry

     total magnetization       =     0.60 Bohr mag/cell
     absolute magnetization    =     0.70 Bohr mag/cell

     iteration #  8     ecut=    44.10 Ry     beta=0.10
     Davidson diagonalization with overlap
     ethr =  9.05E-07,  avg # of iterations =  1.0
 
     Magnetic moment per site:
     atom:    1    charge:    3.9765    magn:    0.3699    constr:    0.0000

     total cpu time spent up to now is       16.1 secs

     total energy              =    -100.65711607 Ry
     Harris-Foulkes estimate   =    -100.65708061 Ry
     estimated scf accuracy    <       0.00009240 Ry

     total magnetization       =     0.60 Bohr mag/cell
     absolute magnetization    =     0.70 Bohr mag/cell

     iteration #  9     ecut=    44.10 Ry     beta=0.10
     Davidson diagonalization with overlap
     ethr =  9.05E-07,  avg # of iterations =  1.0
 
     Magnetic moment per site:
     atom:    1    charge:    3.9764    magn:    0.3787    constr:    0.0000

     total cpu time spent up to now is       17.6 secs

     total energy              =    -100.65712708 Ry
     Harris-Foulkes estimate   =    -100.65713550 Ry
     estimated scf accuracy    <       0.00000181 Ry

     total magnetization       =     0.59 Bohr mag/cell
     absolute magnetization    =     0.68 Bohr mag/cell

     iteration # 10     ecut=    44.10 Ry     beta=0.10
     Davidson diagonalization with overlap
     ethr =  1.81E-08,  avg # of iterations =  1.6
 
     Magnetic moment per site:
     atom:    1    charge:    3.9765    magn:    0.3659    constr:    0.0000

     total cpu time spent up to now is       19.1 secs

     total energy              =    -100.65713353 Ry
     Harris-Foulkes estimate   =    -100.65712861 Ry
     estimated scf accuracy    <       0.00001394 Ry

     total magnetization       =     0.59 Bohr mag/cell
     absolute magnetization    =     0.69 Bohr mag/cell

     iteration # 11     ecut=    44.10 Ry     beta=0.10
     Davidson diagonalization with overlap
     ethr =  1.81E-08,  avg # of iterations =  1.2
 
     Magnetic moment per site:
     atom:    1    charge:    3.9764    magn:    0.3656    constr:    0.0000

     total cpu time spent up to now is       20.5 secs

     End of self-consistent calculation

     Number of k-points >= 100: set verbosity='high' to print the bands.

     the Fermi energy is    13.1589 ev

!    total energy              =    -100.65713664 Ry
     Harris-Foulkes estimate   =    -100.65713653 Ry
     estimated scf accuracy    <       0.00000008 Ry

     The total energy is the sum of the following terms:

     one-electron contribution =     -11.39827695 Ry
     hartree contribution      =      20.77344593 Ry
     xc contribution           =     -41.84115312 Ry
     ewald contribution        =     -68.18693061 Ry
     smearing contrib. (-TS)   =      -0.00422189 Ry

     total magnetization       =     0.59 Bohr mag/cell
     absolute magnetization    =     0.68 Bohr mag/cell

     convergence has been achieved in  11 iterations

     Forces acting on atoms (Ry/au):

     atom    1 type  1   force =     0.00000000    0.00000000    0.00000000

     Total force =     0.000000     Total SCF correction =     0.000000
 !ASE

     Writing output data file calc.save
 
     init_run     :      9.04s CPU      0.93s WALL (       1 calls)
     electrons    :    281.64s CPU     19.36s WALL (       1 calls)
     forces       :      2.66s CPU      0.18s WALL (       1 calls)

     Called by init_run:
     wfcinit      :      8.47s CPU      0.59s WALL (       1 calls)
     potinit      :      0.04s CPU      0.05s WALL (       1 calls)

     Called by electrons:
     c_bands      :    215.30s CPU     14.85s WALL (      12 calls)
     sum_band     :     53.81s CPU      3.67s WALL (      12 calls)
     v_of_rho     :      7.08s CPU      0.52s WALL (      12 calls)
     newd         :      4.99s CPU      0.36s WALL (      12 calls)
     mix_rho      :      0.47s CPU      0.03s WALL (      12 calls)

     Called by c_bands:
     init_us_2    :      4.53s CPU      0.31s WALL (    2912 calls)
     cegterg      :    200.96s CPU     13.88s WALL (    1344 calls)

     Called by *egterg:
     h_psi        :    169.46s CPU     11.78s WALL (    3538 calls)
     s_psi        :      1.34s CPU      0.11s WALL (    3538 calls)
     g_psi        :      2.12s CPU      0.12s WALL (    2082 calls)
     cdiaghg      :     17.95s CPU      1.23s WALL (    3314 calls)

     Called by h_psi:
     add_vuspsi   :      2.67s CPU      0.14s WALL (    3538 calls)

     General routines
     calbec       :      7.83s CPU      0.61s WALL (    4994 calls)
     fft          :      1.89s CPU      0.14s WALL (     389 calls)
     ffts         :      0.08s CPU      0.01s WALL (      48 calls)
     fftw         :    156.63s CPU     10.89s WALL (  110752 calls)
     interpolate  :      0.37s CPU      0.03s WALL (      48 calls)
     davcio       :      0.08s CPU      0.01s WALL (     112 calls)
 
     Parallel routines
     fft_scatter  :     20.10s CPU      1.39s WALL (  111189 calls)
 
     PWSCF        :  4m55.98s CPU     0m20.86s WALL

 
   This run was terminated on:  11:24:21  10Mar2017            

=------------------------------------------------------------------------------=
   JOB DONE.
=------------------------------------------------------------------------------=
