  python dir          : /home/vossj/suncat/lib/python2.7/site-packages/espresso
  espresso dir        : /home/vossj/suncat/esdld/espresso-dynpy-beef/bin
  pseudo dir          : /home/alatimer/bin/psp/esp_psp_w_gbrvRu/
  ase-espresso py git : ffa2778-git



     Program PWSCF v.5.1rc2 (svn rev. ) starts on 10Mar2017 at 14:52:59 

     This program is part of the open-source Quantum ESPRESSO suite
     for quantum simulation of materials; please cite
         "P. Giannozzi et al., J. Phys.:Condens. Matter 21 395502 (2009);
          URL http://www.quantum-espresso.org", 
     in publications or presentations arising from this work. More details at
     http://www.quantum-espresso.org/quote

     Parallel version (MPI), running on    16 processors
     R & G space division:  proc/nbgrp/npool/nimage =      16
     Reading input from pw.inp
     Message from routine read_cards :
     DEPRECATED: no units specified in CELL_PARAMETERS card

     Current dimensions of program PWSCF are:
     Max number of different atomic species (ntypx) = 10
     Max number of k-points (npk) =  40000
     Max angular momentum in pseudopotentials (lmaxx) =  3
     Presently no symmetry can be used with electric field


     IMPORTANT: XC functional enforced from input :
     Exchange-correlation      = RPBE ( 1  4 28  4 0)
     Any further DFT definition will be discarded
     Please, verify this is what you really want

               file Ni.UPF: wavefunction(s)  3D renormalized

     Subspace diagonalization in iterative solution of the eigenvalue problem:
     a serial algorithm will be used

 
     Parallelization info
     --------------------
     sticks:   dense  smooth     PW     G-vecs:    dense   smooth      PW
     Min         386     154     42                68872    17389    2480
     Max         387     155     43                68885    17439    2491
     Sum        6181    2479    673              1102011   278611   39737
 
     Generating pointlists ...
     new r_m :   0.4125 (alat units)  0.7795 (a.u.) for type    1
     new r_m :   0.4125 (alat units)  0.7795 (a.u.) for type    2


     bravais-lattice index     =            0
     lattice parameter (alat)  =       1.8897  a.u.
     unit-cell volume          =    7046.4111 (a.u.)^3
     number of atoms/cell      =           37
     number of atomic types    =            2
     number of electrons       =       364.00
     number of Kohn-Sham states=          282
     kinetic-energy cutoff     =      44.0992  Ry
     charge density cutoff     =     440.9919  Ry
     convergence threshold     =      7.3E-07
     mixing beta               =       0.1000
     number of iterations used =           10  plain     mixing
     Exchange-correlation      = RPBE ( 1  4 28  4 0)
     nstep                     =           50


     celldm(1)=   1.889726  celldm(2)=   0.000000  celldm(3)=   0.000000
     celldm(4)=   0.000000  celldm(5)=   0.000000  celldm(6)=   0.000000

     crystal axes: (cart. coord. in units of alat)
               a(1) = (   7.548011   0.000000   0.000000 )  
               a(2) = (  -3.774005   6.536769   0.000000 )  
               a(3) = (   0.000000   0.000000  21.162925 )  

     reciprocal axes: (cart. coord. in units 2 pi/alat)
               b(1) = (  0.132485  0.076490  0.000000 )  
               b(2) = (  0.000000  0.152981  0.000000 )  
               b(3) = (  0.000000  0.000000  0.047252 )  


     PseudoPot. # 1 for Ni read from file:
     /home/alatimer/bin/psp/esp_psp_w_gbrvRu/Ni.UPF
     MD5 check sum: 8b2449ee0060d9c33484ccd47bb60870
     Pseudo is Ultrasoft + core correction, Zval = 10.0
     Generated using "atomic" code by A. Dal Corso  v.5.0.2 svn rev. 9415
     Using radial grid of 1195 points,  6 beta functions with: 
                l(1) =   0
                l(2) =   0
                l(3) =   1
                l(4) =   1
                l(5) =   2
                l(6) =   2
     Q(r) pseudized with 0 coefficients 


     PseudoPot. # 2 for  C read from file:
     /home/alatimer/bin/psp/esp_psp_w_gbrvRu/C.UPF
     MD5 check sum: ab446d787031eba755f1d5ee46644bb0
     Pseudo is Ultrasoft + core correction, Zval =  4.0
     Generated using "atomic" code by A. Dal Corso  v.5.0.2 svn rev. 9415
     Using radial grid of 1073 points,  4 beta functions with: 
                l(1) =   0
                l(2) =   0
                l(3) =   1
                l(4) =   1
     Q(r) pseudized with 0 coefficients 


     atomic species   valence    mass     pseudopotential
        Ni1           10.00    58.69340     Ni( 1.00)
        C1             4.00    12.01100      C( 1.00)

     Starting magnetic structure 
     atomic species   magnetization
        Ni1          0.300
        C1           0.750

     No symmetry found



   Cartesian axes

     site n.     atom                  positions (alat units)
         1           Ni1 tau(   1) = (   0.0000000   0.0000000   7.5000000  )
         2           Ni1 tau(   2) = (   1.2580018   0.7263077   9.5543084  )
         3           Ni1 tau(   3) = (   0.0000000   1.4526154  11.6086168  )
         4           Ni1 tau(   4) = (   1.2580018   2.1789231  13.6629252  )
         5           Ni1 tau(   5) = (  -1.2580018   2.1789231   7.5000000  )
         6           Ni1 tau(   6) = (   0.0000000   2.9052308   9.5543084  )
         7           Ni1 tau(   7) = (  -1.2580018   3.6315385  11.6086168  )
         8           Ni1 tau(   8) = (  -0.0000000   4.3578462  13.6629252  )
         9           Ni1 tau(   9) = (  -2.5160037   4.3578462   7.5000000  )
        10           Ni1 tau(  10) = (  -1.2580018   5.0841539   9.5543084  )
        11           Ni1 tau(  11) = (  -2.5160037   5.8104616  11.6086168  )
        12           Ni1 tau(  12) = (  -1.2580018   6.5367693  13.6629252  )
        13           Ni1 tau(  13) = (   2.5160037   0.0000000   7.5000000  )
        14           Ni1 tau(  14) = (   3.7740055   0.7263077   9.5543084  )
        15           Ni1 tau(  15) = (   2.5160037   1.4526154  11.6086168  )
        16           Ni1 tau(  16) = (   3.7740055   2.1789231  13.6629252  )
        17           Ni1 tau(  17) = (   1.2580018   2.1789231   7.5000000  )
        18           Ni1 tau(  18) = (   2.5160037   2.9052308   9.5543084  )
        19           Ni1 tau(  19) = (   1.2580018   3.6315385  11.6086168  )
        20           Ni1 tau(  20) = (   2.5160037   4.3578462  13.6629252  )
        21           Ni1 tau(  21) = (  -0.0000000   4.3578462   7.5000000  )
        22           Ni1 tau(  22) = (   1.2580018   5.0841539   9.5543084  )
        23           Ni1 tau(  23) = (  -0.0000000   5.8104616  11.6086168  )
        24           Ni1 tau(  24) = (   1.2580018   6.5367693  13.6629252  )
        25           Ni1 tau(  25) = (   5.0320073   0.0000000   7.5000000  )
        26           Ni1 tau(  26) = (   6.2900092   0.7263077   9.5543084  )
        27           Ni1 tau(  27) = (   5.0320073   1.4526154  11.6086168  )
        28           Ni1 tau(  28) = (   6.2900092   2.1789231  13.6629252  )
        29           Ni1 tau(  29) = (   3.7740055   2.1789231   7.5000000  )
        30           Ni1 tau(  30) = (   5.0320073   2.9052308   9.5543084  )
        31           Ni1 tau(  31) = (   3.7740055   3.6315385  11.6086168  )
        32           Ni1 tau(  32) = (   5.0320073   4.3578462  13.6629252  )
        33           Ni1 tau(  33) = (   2.5160037   4.3578462   7.5000000  )
        34           Ni1 tau(  34) = (   3.7740055   5.0841539   9.5543084  )
        35           Ni1 tau(  35) = (   2.5160037   5.8104616  11.6086168  )
        36           Ni1 tau(  36) = (   3.7740055   6.5367693  13.6629252  )
        37           C1  tau(  37) = (   1.2580018   2.1789231  15.4629252  )

     number of k points=    10  Fermi-Dirac smearing, width (Ry)=  0.0073
                       cart. coord. in units 2pi/alat
        k(    1) = (   0.0000000   0.0000000   0.0000000), wk =   0.1111111
        k(    2) = (   0.0000000   0.0509936   0.0000000), wk =   0.2222222
        k(    3) = (   0.0441617   0.0254968   0.0000000), wk =   0.2222222
        k(    4) = (   0.0441617   0.0764904   0.0000000), wk =   0.2222222
        k(    5) = (   0.0441617  -0.0254968   0.0000000), wk =   0.2222222
        k(    6) = (   0.0000000   0.0000000   0.0000000), wk =   0.1111111
        k(    7) = (   0.0000000   0.0509936   0.0000000), wk =   0.2222222
        k(    8) = (   0.0441617   0.0254968   0.0000000), wk =   0.2222222
        k(    9) = (   0.0441617   0.0764904   0.0000000), wk =   0.2222222
        k(   10) = (   0.0441617  -0.0254968   0.0000000), wk =   0.2222222

     Dense  grid:  1102011 G-vectors     FFT dimensions: (  96,  96, 270)

     Smooth grid:   278611 G-vectors     FFT dimensions: (  64,  64, 180)

     Largest allocated arrays     est. size (Mb)     dimensions
        Kohn-Sham Wavefunctions         9.39 Mb     (    2183,  282)
        NL pseudopotentials            21.85 Mb     (    2183,  656)
        Each V/rho on FFT grid          4.78 Mb     (  156672,   2)
        Each G-vector array             0.53 Mb     (   68874)
        G-vector shells                 0.19 Mb     (   24563)
     Largest temporary arrays     est. size (Mb)     dimensions
        Auxiliary wavefunctions        37.57 Mb     (    2183, 1128)
        Each subspace H/S matrix       19.42 Mb     (    1128, 1128)
        Each <psi_i|beta_j> matrix      2.82 Mb     (     656,  282)
        Arrays for rho mixing          23.91 Mb     (  156672,   10)

     Initial potential from superposition of free atoms
     Check: negative starting charge=(component1):   -0.000320
     Check: negative starting charge=(component2):   -0.000183

     starting charge  363.99092, renormalised to  364.00000

     negative rho (up, down):  3.197E-04 1.830E-04
 
     Adding external electric field

     Computed dipole along edir(3) : 
        Dipole               -0.0005 Ry au,         -0.0014 Debye
        Dipole field         -0.0000 Ry au
 
        Potential amp.        0.0001 Ry
        Total length         38.9923 bohr
 
 
     Adding external electric field

     Computed dipole along edir(3) : 
        Dipole               -0.0005 Ry au,         -0.0014 Debye
        Dipole field         -0.0000 Ry au
 
        Potential amp.        0.0001 Ry
        Total length         38.9923 bohr
 
     Starting wfc are  328 randomized atomic wfcs

     total cpu time spent up to now is       31.4 secs

     Self-consistent Calculation

     iteration #  1     ecut=    44.10 Ry     beta=0.10
     Davidson diagonalization with overlap
     ethr =  1.00E-02,  avg # of iterations =  6.9

     negative rho (up, down):  2.872E-04 1.595E-04
 
     Adding external electric field

     Computed dipole along edir(3) : 
        Dipole                0.3868 Ry au,          0.9832 Debye
        Dipole field          0.0007 Ry au
 
        Potential amp.       -0.0538 Ry
        Total length         38.9923 bohr
 
 
     Adding external electric field

     Computed dipole along edir(3) : 
        Dipole                0.3868 Ry au,          0.9832 Debye
        Dipole field          0.0007 Ry au
 
        Potential amp.       -0.0538 Ry
        Total length         38.9923 bohr
 
 
     Magnetic moment per site:
     atom:    1    charge:    3.9499    magn:    1.1252    constr:    0.0000
     atom:    2    charge:    3.9685    magn:    1.1113    constr:    0.0000
     atom:    3    charge:    3.9699    magn:    1.1096    constr:    0.0000
     atom:    4    charge:    3.9561    magn:    1.1006    constr:    0.0000
     atom:    5    charge:    3.9499    magn:    1.1252    constr:    0.0000
     atom:    6    charge:    3.9685    magn:    1.1113    constr:    0.0000
     atom:    7    charge:    3.9687    magn:    1.1108    constr:    0.0000
     atom:    8    charge:    3.9507    magn:    1.1249    constr:    0.0000
     atom:    9    charge:    3.9497    magn:    1.1253    constr:    0.0000
     atom:   10    charge:    3.9683    magn:    1.1112    constr:    0.0000
     atom:   11    charge:    3.9687    magn:    1.1109    constr:    0.0000
     atom:   12    charge:    3.9507    magn:    1.1248    constr:    0.0000
     atom:   13    charge:    3.9499    magn:    1.1252    constr:    0.0000
     atom:   14    charge:    3.9686    magn:    1.1105    constr:    0.0000
     atom:   15    charge:    3.9699    magn:    1.1096    constr:    0.0000
     atom:   16    charge:    3.9507    magn:    1.1249    constr:    0.0000
     atom:   17    charge:    3.9497    magn:    1.1254    constr:    0.0000
     atom:   18    charge:    3.9685    magn:    1.1113    constr:    0.0000
     atom:   19    charge:    3.9699    magn:    1.1096    constr:    0.0000
     atom:   20    charge:    3.9507    magn:    1.1248    constr:    0.0000
     atom:   21    charge:    3.9499    magn:    1.1252    constr:    0.0000
     atom:   22    charge:    3.9686    magn:    1.1105    constr:    0.0000
     atom:   23    charge:    3.9680    magn:    1.1111    constr:    0.0000
     atom:   24    charge:    3.9500    magn:    1.1259    constr:    0.0000
     atom:   25    charge:    3.9488    magn:    1.1261    constr:    0.0000
     atom:   26    charge:    3.9686    magn:    1.1105    constr:    0.0000
     atom:   27    charge:    3.9680    magn:    1.1111    constr:    0.0000
     atom:   28    charge:    3.9507    magn:    1.1248    constr:    0.0000
     atom:   29    charge:    3.9499    magn:    1.1252    constr:    0.0000
     atom:   30    charge:    3.9683    magn:    1.1112    constr:    0.0000
     atom:   31    charge:    3.9687    magn:    1.1108    constr:    0.0000
     atom:   32    charge:    3.9500    magn:    1.1256    constr:    0.0000
     atom:   33    charge:    3.9499    magn:    1.1252    constr:    0.0000
     atom:   34    charge:    3.9683    magn:    1.1112    constr:    0.0000
     atom:   35    charge:    3.9680    magn:    1.1111    constr:    0.0000
     atom:   36    charge:    3.9507    magn:    1.1249    constr:    0.0000
     atom:   37    charge:    0.5466    magn:    0.3919    constr:    0.0000

     total cpu time spent up to now is      153.1 secs

     total energy              =   -3631.85483740 Ry
     Harris-Foulkes estimate   =   -3632.93524055 Ry
     estimated scf accuracy    <      10.97496433 Ry

     total magnetization       =    36.37 Bohr mag/cell
     absolute magnetization    =    36.38 Bohr mag/cell

     iteration #  2     ecut=    44.10 Ry     beta=0.10
     Davidson diagonalization with overlap
     ethr =  3.02E-03,  avg # of iterations =  2.6

     negative rho (up, down):  2.837E-04 1.789E-04
 
     Adding external electric field

     Computed dipole along edir(3) : 
        Dipole               -0.1977 Ry au,         -0.5025 Debye
        Dipole field         -0.0004 Ry au
 
        Potential amp.        0.0275 Ry
        Total length         38.9923 bohr
 
 
     Adding external electric field

     Computed dipole along edir(3) : 
        Dipole               -0.1977 Ry au,         -0.5025 Debye
        Dipole field         -0.0004 Ry au
 
        Potential amp.        0.0275 Ry
        Total length         38.9923 bohr
 
 
     Magnetic moment per site:
     atom:    1    charge:    3.9631    magn:    1.1021    constr:    0.0000
     atom:    2    charge:    3.9549    magn:    1.1086    constr:    0.0000
     atom:    3    charge:    3.9574    magn:    1.1055    constr:    0.0000
     atom:    4    charge:    3.9654    magn:    1.0807    constr:    0.0000
     atom:    5    charge:    3.9630    magn:    1.1021    constr:    0.0000
     atom:    6    charge:    3.9549    magn:    1.1086    constr:    0.0000
     atom:    7    charge:    3.9575    magn:    1.1060    constr:    0.0000
     atom:    8    charge:    3.9651    magn:    1.1008    constr:    0.0000
     atom:    9    charge:    3.9629    magn:    1.1021    constr:    0.0000
     atom:   10    charge:    3.9550    magn:    1.1083    constr:    0.0000
     atom:   11    charge:    3.9575    magn:    1.1060    constr:    0.0000
     atom:   12    charge:    3.9651    magn:    1.1008    constr:    0.0000
     atom:   13    charge:    3.9630    magn:    1.1021    constr:    0.0000
     atom:   14    charge:    3.9549    magn:    1.1080    constr:    0.0000
     atom:   15    charge:    3.9574    magn:    1.1055    constr:    0.0000
     atom:   16    charge:    3.9651    magn:    1.1008    constr:    0.0000
     atom:   17    charge:    3.9629    magn:    1.1023    constr:    0.0000
     atom:   18    charge:    3.9549    magn:    1.1086    constr:    0.0000
     atom:   19    charge:    3.9574    magn:    1.1055    constr:    0.0000
     atom:   20    charge:    3.9651    magn:    1.1008    constr:    0.0000
     atom:   21    charge:    3.9630    magn:    1.1021    constr:    0.0000
     atom:   22    charge:    3.9549    magn:    1.1080    constr:    0.0000
     atom:   23    charge:    3.9575    magn:    1.1059    constr:    0.0000
     atom:   24    charge:    3.9645    magn:    1.1016    constr:    0.0000
     atom:   25    charge:    3.9622    magn:    1.1028    constr:    0.0000
     atom:   26    charge:    3.9549    magn:    1.1080    constr:    0.0000
     atom:   27    charge:    3.9575    magn:    1.1059    constr:    0.0000
     atom:   28    charge:    3.9651    magn:    1.1008    constr:    0.0000
     atom:   29    charge:    3.9631    magn:    1.1021    constr:    0.0000
     atom:   30    charge:    3.9550    magn:    1.1083    constr:    0.0000
     atom:   31    charge:    3.9575    magn:    1.1060    constr:    0.0000
     atom:   32    charge:    3.9645    magn:    1.1013    constr:    0.0000
     atom:   33    charge:    3.9630    magn:    1.1021    constr:    0.0000
     atom:   34    charge:    3.9550    magn:    1.1083    constr:    0.0000
     atom:   35    charge:    3.9575    magn:    1.1059    constr:    0.0000
     atom:   36    charge:    3.9651    magn:    1.1008    constr:    0.0000
     atom:   37    charge:    0.5530    magn:    0.3907    constr:    0.0000

     total cpu time spent up to now is      227.6 secs

     total energy              =   -3631.75919822 Ry
     Harris-Foulkes estimate   =   -3634.30601354 Ry
     estimated scf accuracy    <      56.83727691 Ry

     total magnetization       =    41.66 Bohr mag/cell
     absolute magnetization    =    41.75 Bohr mag/cell

     iteration #  3     ecut=    44.10 Ry     beta=0.10
     Davidson diagonalization with overlap
     ethr =  3.02E-03,  avg # of iterations =  1.2

     negative rho (up, down):  2.850E-04 2.041E-04
 
     Adding external electric field

     Computed dipole along edir(3) : 
        Dipole                0.5138 Ry au,          1.3060 Debye
        Dipole field          0.0009 Ry au
 
        Potential amp.       -0.0715 Ry
        Total length         38.9923 bohr
 
 
     Adding external electric field

     Computed dipole along edir(3) : 
        Dipole                0.5138 Ry au,          1.3060 Debye
        Dipole field          0.0009 Ry au
 
        Potential amp.       -0.0715 Ry
        Total length         38.9923 bohr
 
 
     Magnetic moment per site:
     atom:    1    charge:    3.9673    magn:    1.0917    constr:    0.0000
     atom:    2    charge:    3.9563    magn:    1.1004    constr:    0.0000
     atom:    3    charge:    3.9557    magn:    1.1000    constr:    0.0000
     atom:    4    charge:    3.9650    magn:    1.0730    constr:    0.0000
     atom:    5    charge:    3.9673    magn:    1.0917    constr:    0.0000
     atom:    6    charge:    3.9563    magn:    1.1004    constr:    0.0000
     atom:    7    charge:    3.9557    magn:    1.1006    constr:    0.0000
     atom:    8    charge:    3.9630    magn:    1.0963    constr:    0.0000
     atom:    9    charge:    3.9671    magn:    1.0917    constr:    0.0000
     atom:   10    charge:    3.9564    magn:    1.1001    constr:    0.0000
     atom:   11    charge:    3.9557    magn:    1.1006    constr:    0.0000
     atom:   12    charge:    3.9630    magn:    1.0963    constr:    0.0000
     atom:   13    charge:    3.9673    magn:    1.0917    constr:    0.0000
     atom:   14    charge:    3.9563    magn:    1.0998    constr:    0.0000
     atom:   15    charge:    3.9557    magn:    1.1000    constr:    0.0000
     atom:   16    charge:    3.9630    magn:    1.0963    constr:    0.0000
     atom:   17    charge:    3.9672    magn:    1.0919    constr:    0.0000
     atom:   18    charge:    3.9563    magn:    1.1004    constr:    0.0000
     atom:   19    charge:    3.9557    magn:    1.1000    constr:    0.0000
     atom:   20    charge:    3.9630    magn:    1.0963    constr:    0.0000
     atom:   21    charge:    3.9673    magn:    1.0917    constr:    0.0000
     atom:   22    charge:    3.9563    magn:    1.0998    constr:    0.0000
     atom:   23    charge:    3.9557    magn:    1.1005    constr:    0.0000
     atom:   24    charge:    3.9626    magn:    1.0970    constr:    0.0000
     atom:   25    charge:    3.9666    magn:    1.0922    constr:    0.0000
     atom:   26    charge:    3.9563    magn:    1.0998    constr:    0.0000
     atom:   27    charge:    3.9557    magn:    1.1005    constr:    0.0000
     atom:   28    charge:    3.9630    magn:    1.0963    constr:    0.0000
     atom:   29    charge:    3.9673    magn:    1.0917    constr:    0.0000
     atom:   30    charge:    3.9564    magn:    1.1001    constr:    0.0000
     atom:   31    charge:    3.9557    magn:    1.1006    constr:    0.0000
     atom:   32    charge:    3.9625    magn:    1.0967    constr:    0.0000
     atom:   33    charge:    3.9673    magn:    1.0917    constr:    0.0000
     atom:   34    charge:    3.9564    magn:    1.1001    constr:    0.0000
     atom:   35    charge:    3.9557    magn:    1.1005    constr:    0.0000
     atom:   36    charge:    3.9630    magn:    1.0963    constr:    0.0000
     atom:   37    charge:    0.5546    magn:    0.3898    constr:    0.0000

     total cpu time spent up to now is      295.9 secs

     total energy              =   -3632.49951028 Ry
     Harris-Foulkes estimate   =   -3633.07749757 Ry
     estimated scf accuracy    <      30.78714512 Ry

     total magnetization       =    39.57 Bohr mag/cell
     absolute magnetization    =    39.61 Bohr mag/cell

     iteration #  4     ecut=    44.10 Ry     beta=0.10
     Davidson diagonalization with overlap
     ethr =  3.02E-03,  avg # of iterations =  1.0

     negative rho (up, down):  2.819E-04 1.923E-04
 
     Adding external electric field

     Computed dipole along edir(3) : 
        Dipole               -0.2872 Ry au,         -0.7300 Debye
        Dipole field         -0.0005 Ry au
 
        Potential amp.        0.0399 Ry
        Total length         38.9923 bohr
 
 
     Adding external electric field

     Computed dipole along edir(3) : 
        Dipole               -0.2872 Ry au,         -0.7300 Debye
        Dipole field         -0.0005 Ry au
 
        Potential amp.        0.0399 Ry
        Total length         38.9923 bohr
 
 
     Magnetic moment per site:
     atom:    1    charge:    3.9717    magn:    1.0291    constr:    0.0000
     atom:    2    charge:    3.9626    magn:    1.0336    constr:    0.0000
     atom:    3    charge:    3.9575    magn:    1.0364    constr:    0.0000
     atom:    4    charge:    3.9720    magn:    0.9975    constr:    0.0000
     atom:    5    charge:    3.9717    magn:    1.0291    constr:    0.0000
     atom:    6    charge:    3.9626    magn:    1.0336    constr:    0.0000
     atom:    7    charge:    3.9572    magn:    1.0378    constr:    0.0000
     atom:    8    charge:    3.9680    magn:    1.0345    constr:    0.0000
     atom:    9    charge:    3.9716    magn:    1.0290    constr:    0.0000
     atom:   10    charge:    3.9623    magn:    1.0333    constr:    0.0000
     atom:   11    charge:    3.9572    magn:    1.0378    constr:    0.0000
     atom:   12    charge:    3.9680    magn:    1.0345    constr:    0.0000
     atom:   13    charge:    3.9717    magn:    1.0291    constr:    0.0000
     atom:   14    charge:    3.9624    magn:    1.0328    constr:    0.0000
     atom:   15    charge:    3.9575    magn:    1.0364    constr:    0.0000
     atom:   16    charge:    3.9680    magn:    1.0345    constr:    0.0000
     atom:   17    charge:    3.9720    magn:    1.0292    constr:    0.0000
     atom:   18    charge:    3.9626    magn:    1.0336    constr:    0.0000
     atom:   19    charge:    3.9575    magn:    1.0364    constr:    0.0000
     atom:   20    charge:    3.9680    magn:    1.0345    constr:    0.0000
     atom:   21    charge:    3.9717    magn:    1.0291    constr:    0.0000
     atom:   22    charge:    3.9624    magn:    1.0328    constr:    0.0000
     atom:   23    charge:    3.9570    magn:    1.0378    constr:    0.0000
     atom:   24    charge:    3.9686    magn:    1.0343    constr:    0.0000
     atom:   25    charge:    3.9730    magn:    1.0280    constr:    0.0000
     atom:   26    charge:    3.9624    magn:    1.0328    constr:    0.0000
     atom:   27    charge:    3.9570    magn:    1.0378    constr:    0.0000
     atom:   28    charge:    3.9680    magn:    1.0345    constr:    0.0000
     atom:   29    charge:    3.9717    magn:    1.0291    constr:    0.0000
     atom:   30    charge:    3.9623    magn:    1.0333    constr:    0.0000
     atom:   31    charge:    3.9572    magn:    1.0378    constr:    0.0000
     atom:   32    charge:    3.9683    magn:    1.0338    constr:    0.0000
     atom:   33    charge:    3.9717    magn:    1.0291    constr:    0.0000
     atom:   34    charge:    3.9623    magn:    1.0333    constr:    0.0000
     atom:   35    charge:    3.9570    magn:    1.0378    constr:    0.0000
     atom:   36    charge:    3.9680    magn:    1.0346    constr:    0.0000
     atom:   37    charge:    0.5706    magn:    0.3829    constr:    0.0000

     total cpu time spent up to now is      363.4 secs

     total energy              =   -3632.86592083 Ry
     Harris-Foulkes estimate   =   -3633.28427019 Ry
     estimated scf accuracy    <      65.83451650 Ry

     total magnetization       =    39.80 Bohr mag/cell
     absolute magnetization    =    39.86 Bohr mag/cell

     iteration #  5     ecut=    44.10 Ry     beta=0.10
     Davidson diagonalization with overlap
     ethr =  3.02E-03,  avg # of iterations =  1.0

     negative rho (up, down):  2.800E-04 1.892E-04
 
     Adding external electric field

     Computed dipole along edir(3) : 
        Dipole               -0.2427 Ry au,         -0.6170 Debye
        Dipole field         -0.0004 Ry au
 
        Potential amp.        0.0338 Ry
        Total length         38.9923 bohr
 
 
     Adding external electric field

     Computed dipole along edir(3) : 
        Dipole               -0.2427 Ry au,         -0.6170 Debye
        Dipole field         -0.0004 Ry au
 
        Potential amp.        0.0338 Ry
        Total length         38.9923 bohr
 
 
     Magnetic moment per site:
     atom:    1    charge:    3.9778    magn:    0.9683    constr:    0.0000
     atom:    2    charge:    3.9588    magn:    0.9804    constr:    0.0000
     atom:    3    charge:    3.9618    magn:    0.9768    constr:    0.0000
     atom:    4    charge:    3.9544    magn:    0.9350    constr:    0.0000
     atom:    5    charge:    3.9778    magn:    0.9683    constr:    0.0000
     atom:    6    charge:    3.9588    magn:    0.9804    constr:    0.0000
     atom:    7    charge:    3.9635    magn:    0.9770    constr:    0.0000
     atom:    8    charge:    3.9725    magn:    0.9766    constr:    0.0000
     atom:    9    charge:    3.9781    magn:    0.9679    constr:    0.0000
     atom:   10    charge:    3.9595    magn:    0.9791    constr:    0.0000
     atom:   11    charge:    3.9635    magn:    0.9770    constr:    0.0000
     atom:   12    charge:    3.9725    magn:    0.9766    constr:    0.0000
     atom:   13    charge:    3.9778    magn:    0.9683    constr:    0.0000
     atom:   14    charge:    3.9590    magn:    0.9789    constr:    0.0000
     atom:   15    charge:    3.9618    magn:    0.9768    constr:    0.0000
     atom:   16    charge:    3.9724    magn:    0.9766    constr:    0.0000
     atom:   17    charge:    3.9777    magn:    0.9687    constr:    0.0000
     atom:   18    charge:    3.9588    magn:    0.9804    constr:    0.0000
     atom:   19    charge:    3.9618    magn:    0.9768    constr:    0.0000
     atom:   20    charge:    3.9725    magn:    0.9766    constr:    0.0000
     atom:   21    charge:    3.9778    magn:    0.9683    constr:    0.0000
     atom:   22    charge:    3.9590    magn:    0.9789    constr:    0.0000
     atom:   23    charge:    3.9629    magn:    0.9770    constr:    0.0000
     atom:   24    charge:    3.9763    magn:    0.9737    constr:    0.0000
     atom:   25    charge:    3.9768    magn:    0.9689    constr:    0.0000
     atom:   26    charge:    3.9590    magn:    0.9789    constr:    0.0000
     atom:   27    charge:    3.9629    magn:    0.9770    constr:    0.0000
     atom:   28    charge:    3.9725    magn:    0.9766    constr:    0.0000
     atom:   29    charge:    3.9778    magn:    0.9683    constr:    0.0000
     atom:   30    charge:    3.9595    magn:    0.9791    constr:    0.0000
     atom:   31    charge:    3.9635    magn:    0.9770    constr:    0.0000
     atom:   32    charge:    3.9763    magn:    0.9726    constr:    0.0000
     atom:   33    charge:    3.9778    magn:    0.9683    constr:    0.0000
     atom:   34    charge:    3.9595    magn:    0.9791    constr:    0.0000
     atom:   35    charge:    3.9629    magn:    0.9770    constr:    0.0000
     atom:   36    charge:    3.9725    magn:    0.9766    constr:    0.0000
     atom:   37    charge:    0.5763    magn:    0.3709    constr:    0.0000

     total cpu time spent up to now is      430.8 secs

     total energy              =   -3633.38720869 Ry
     Harris-Foulkes estimate   =   -3633.23560949 Ry
     estimated scf accuracy    <       2.53146145 Ry

     total magnetization       =    38.02 Bohr mag/cell
     absolute magnetization    =    38.17 Bohr mag/cell

     iteration #  6     ecut=    44.10 Ry     beta=0.10
     Davidson diagonalization with overlap
     ethr =  6.95E-04,  avg # of iterations =  6.8

     negative rho (up, down):  2.795E-04 1.822E-04
 
     Adding external electric field

     Computed dipole along edir(3) : 
        Dipole               -0.2882 Ry au,         -0.7326 Debye
        Dipole field         -0.0005 Ry au
 
        Potential amp.        0.0401 Ry
        Total length         38.9923 bohr
 
 
     Adding external electric field

     Computed dipole along edir(3) : 
        Dipole               -0.2882 Ry au,         -0.7326 Debye
        Dipole field         -0.0005 Ry au
 
        Potential amp.        0.0401 Ry
        Total length         38.9923 bohr
 
 
     Magnetic moment per site:
     atom:    1    charge:    3.9781    magn:    0.8819    constr:    0.0000
     atom:    2    charge:    3.9634    magn:    0.8923    constr:    0.0000
     atom:    3    charge:    3.9646    magn:    0.8892    constr:    0.0000
     atom:    4    charge:    3.9539    magn:    0.8263    constr:    0.0000
     atom:    5    charge:    3.9781    magn:    0.8819    constr:    0.0000
     atom:    6    charge:    3.9634    magn:    0.8923    constr:    0.0000
     atom:    7    charge:    3.9602    magn:    0.8953    constr:    0.0000
     atom:    8    charge:    3.9794    magn:    0.8877    constr:    0.0000
     atom:    9    charge:    3.9770    magn:    0.8826    constr:    0.0000
     atom:   10    charge:    3.9619    magn:    0.8925    constr:    0.0000
     atom:   11    charge:    3.9602    magn:    0.8953    constr:    0.0000
     atom:   12    charge:    3.9794    magn:    0.8877    constr:    0.0000
     atom:   13    charge:    3.9781    magn:    0.8819    constr:    0.0000
     atom:   14    charge:    3.9626    magn:    0.8909    constr:    0.0000
     atom:   15    charge:    3.9646    magn:    0.8892    constr:    0.0000
     atom:   16    charge:    3.9794    magn:    0.8877    constr:    0.0000
     atom:   17    charge:    3.9788    magn:    0.8816    constr:    0.0000
     atom:   18    charge:    3.9634    magn:    0.8923    constr:    0.0000
     atom:   19    charge:    3.9646    magn:    0.8892    constr:    0.0000
     atom:   20    charge:    3.9794    magn:    0.8877    constr:    0.0000
     atom:   21    charge:    3.9781    magn:    0.8819    constr:    0.0000
     atom:   22    charge:    3.9626    magn:    0.8909    constr:    0.0000
     atom:   23    charge:    3.9597    magn:    0.8947    constr:    0.0000
     atom:   24    charge:    3.9768    magn:    0.8897    constr:    0.0000
     atom:   25    charge:    3.9781    magn:    0.8819    constr:    0.0000
     atom:   26    charge:    3.9626    magn:    0.8909    constr:    0.0000
     atom:   27    charge:    3.9597    magn:    0.8948    constr:    0.0000
     atom:   28    charge:    3.9794    magn:    0.8877    constr:    0.0000
     atom:   29    charge:    3.9780    magn:    0.8819    constr:    0.0000
     atom:   30    charge:    3.9619    magn:    0.8925    constr:    0.0000
     atom:   31    charge:    3.9602    magn:    0.8953    constr:    0.0000
     atom:   32    charge:    3.9759    magn:    0.8886    constr:    0.0000
     atom:   33    charge:    3.9781    magn:    0.8819    constr:    0.0000
     atom:   34    charge:    3.9619    magn:    0.8925    constr:    0.0000
     atom:   35    charge:    3.9597    magn:    0.8948    constr:    0.0000
     atom:   36    charge:    3.9794    magn:    0.8877    constr:    0.0000
     atom:   37    charge:    0.5827    magn:    0.3509    constr:    0.0000

     total cpu time spent up to now is      522.8 secs

     total energy              =   -3633.74480364 Ry
     Harris-Foulkes estimate   =   -3633.45991262 Ry
     estimated scf accuracy    <       1.56761621 Ry

     total magnetization       =    38.05 Bohr mag/cell
     absolute magnetization    =    38.36 Bohr mag/cell

     iteration #  7     ecut=    44.10 Ry     beta=0.10
     Davidson diagonalization with overlap
     ethr =  4.31E-04,  avg # of iterations =  4.9

     negative rho (up, down):  2.791E-04 1.841E-04
 
     Adding external electric field

     Computed dipole along edir(3) : 
        Dipole               -0.2368 Ry au,         -0.6018 Debye
        Dipole field         -0.0004 Ry au
 
        Potential amp.        0.0329 Ry
        Total length         38.9923 bohr
 
 
     Adding external electric field

     Computed dipole along edir(3) : 
        Dipole               -0.2368 Ry au,         -0.6018 Debye
        Dipole field         -0.0004 Ry au
 
        Potential amp.        0.0329 Ry
        Total length         38.9923 bohr
 
 
     Magnetic moment per site:
     atom:    1    charge:    3.9754    magn:    0.8297    constr:    0.0000
     atom:    2    charge:    3.9625    magn:    0.8407    constr:    0.0000
     atom:    3    charge:    3.9617    magn:    0.8380    constr:    0.0000
     atom:    4    charge:    3.9584    magn:    0.7526    constr:    0.0000
     atom:    5    charge:    3.9754    magn:    0.8297    constr:    0.0000
     atom:    6    charge:    3.9625    magn:    0.8407    constr:    0.0000
     atom:    7    charge:    3.9642    magn:    0.8397    constr:    0.0000
     atom:    8    charge:    3.9761    magn:    0.8371    constr:    0.0000
     atom:    9    charge:    3.9769    magn:    0.8286    constr:    0.0000
     atom:   10    charge:    3.9647    magn:    0.8377    constr:    0.0000
     atom:   11    charge:    3.9643    magn:    0.8397    constr:    0.0000
     atom:   12    charge:    3.9760    magn:    0.8371    constr:    0.0000
     atom:   13    charge:    3.9754    magn:    0.8298    constr:    0.0000
     atom:   14    charge:    3.9631    magn:    0.8375    constr:    0.0000
     atom:   15    charge:    3.9617    magn:    0.8380    constr:    0.0000
     atom:   16    charge:    3.9760    magn:    0.8371    constr:    0.0000
     atom:   17    charge:    3.9739    magn:    0.8311    constr:    0.0000
     atom:   18    charge:    3.9625    magn:    0.8407    constr:    0.0000
     atom:   19    charge:    3.9617    magn:    0.8380    constr:    0.0000
     atom:   20    charge:    3.9761    magn:    0.8371    constr:    0.0000
     atom:   21    charge:    3.9754    magn:    0.8298    constr:    0.0000
     atom:   22    charge:    3.9631    magn:    0.8375    constr:    0.0000
     atom:   23    charge:    3.9634    magn:    0.8392    constr:    0.0000
     atom:   24    charge:    3.9789    magn:    0.8353    constr:    0.0000
     atom:   25    charge:    3.9758    magn:    0.8297    constr:    0.0000
     atom:   26    charge:    3.9631    magn:    0.8375    constr:    0.0000
     atom:   27    charge:    3.9634    magn:    0.8392    constr:    0.0000
     atom:   28    charge:    3.9760    magn:    0.8371    constr:    0.0000
     atom:   29    charge:    3.9754    magn:    0.8298    constr:    0.0000
     atom:   30    charge:    3.9647    magn:    0.8377    constr:    0.0000
     atom:   31    charge:    3.9642    magn:    0.8397    constr:    0.0000
     atom:   32    charge:    3.9800    magn:    0.8322    constr:    0.0000
     atom:   33    charge:    3.9754    magn:    0.8297    constr:    0.0000
     atom:   34    charge:    3.9647    magn:    0.8377    constr:    0.0000
     atom:   35    charge:    3.9634    magn:    0.8392    constr:    0.0000
     atom:   36    charge:    3.9761    magn:    0.8371    constr:    0.0000
     atom:   37    charge:    0.5835    magn:    0.3347    constr:    0.0000

     total cpu time spent up to now is      607.0 secs

     total energy              =   -3633.93190118 Ry
     Harris-Foulkes estimate   =   -3633.79070171 Ry
     estimated scf accuracy    <       1.35752823 Ry

     total magnetization       =    36.33 Bohr mag/cell
     absolute magnetization    =    37.02 Bohr mag/cell

     iteration #  8     ecut=    44.10 Ry     beta=0.10
     Davidson diagonalization with overlap
     ethr =  3.73E-04,  avg # of iterations =  1.0

     negative rho (up, down):  2.973E-04 2.319E-04
 
     Adding external electric field

     Computed dipole along edir(3) : 
        Dipole               -0.0863 Ry au,         -0.2193 Debye
        Dipole field         -0.0002 Ry au
 
        Potential amp.        0.0120 Ry
        Total length         38.9923 bohr
 
 
     Adding external electric field

     Computed dipole along edir(3) : 
        Dipole               -0.0863 Ry au,         -0.2193 Debye
        Dipole field         -0.0002 Ry au
 
        Potential amp.        0.0120 Ry
        Total length         38.9923 bohr
 
 
     Magnetic moment per site:
     atom:    1    charge:    3.9679    magn:    0.7013    constr:    0.0000
     atom:    2    charge:    3.9669    magn:    0.7081    constr:    0.0000
     atom:    3    charge:    3.9678    magn:    0.7009    constr:    0.0000
     atom:    4    charge:    3.9569    magn:    0.5692    constr:    0.0000
     atom:    5    charge:    3.9680    magn:    0.7013    constr:    0.0000
     atom:    6    charge:    3.9669    magn:    0.7081    constr:    0.0000
     atom:    7    charge:    3.9673    magn:    0.7074    constr:    0.0000
     atom:    8    charge:    3.9715    magn:    0.7081    constr:    0.0000
     atom:    9    charge:    3.9641    magn:    0.7049    constr:    0.0000
     atom:   10    charge:    3.9617    magn:    0.7104    constr:    0.0000
     atom:   11    charge:    3.9673    magn:    0.7075    constr:    0.0000
     atom:   12    charge:    3.9715    magn:    0.7081    constr:    0.0000
     atom:   13    charge:    3.9680    magn:    0.7013    constr:    0.0000
     atom:   14    charge:    3.9645    magn:    0.7056    constr:    0.0000
     atom:   15    charge:    3.9678    magn:    0.7009    constr:    0.0000
     atom:   16    charge:    3.9716    magn:    0.7080    constr:    0.0000
     atom:   17    charge:    3.9727    magn:    0.6968    constr:    0.0000
     atom:   18    charge:    3.9669    magn:    0.7081    constr:    0.0000
     atom:   19    charge:    3.9678    magn:    0.7009    constr:    0.0000
     atom:   20    charge:    3.9715    magn:    0.7081    constr:    0.0000
     atom:   21    charge:    3.9680    magn:    0.7013    constr:    0.0000
     atom:   22    charge:    3.9645    magn:    0.7056    constr:    0.0000
     atom:   23    charge:    3.9680    magn:    0.7051    constr:    0.0000
     atom:   24    charge:    3.9726    magn:    0.7088    constr:    0.0000
     atom:   25    charge:    3.9659    magn:    0.7038    constr:    0.0000
     atom:   26    charge:    3.9644    magn:    0.7056    constr:    0.0000
     atom:   27    charge:    3.9680    magn:    0.7051    constr:    0.0000
     atom:   28    charge:    3.9715    magn:    0.7081    constr:    0.0000
     atom:   29    charge:    3.9680    magn:    0.7013    constr:    0.0000
     atom:   30    charge:    3.9617    magn:    0.7104    constr:    0.0000
     atom:   31    charge:    3.9673    magn:    0.7074    constr:    0.0000
     atom:   32    charge:    3.9683    magn:    0.7090    constr:    0.0000
     atom:   33    charge:    3.9680    magn:    0.7013    constr:    0.0000
     atom:   34    charge:    3.9617    magn:    0.7104    constr:    0.0000
     atom:   35    charge:    3.9680    magn:    0.7051    constr:    0.0000
     atom:   36    charge:    3.9715    magn:    0.7081    constr:    0.0000
     atom:   37    charge:    0.5810    magn:    0.2888    constr:    0.0000

     total cpu time spent up to now is      674.6 secs

     total energy              =   -3634.24382564 Ry
     Harris-Foulkes estimate   =   -3633.95813407 Ry
     estimated scf accuracy    <       0.85647530 Ry

     total magnetization       =    35.25 Bohr mag/cell
     absolute magnetization    =    36.20 Bohr mag/cell

     iteration #  9     ecut=    44.10 Ry     beta=0.10
     Davidson diagonalization with overlap
     ethr =  2.35E-04,  avg # of iterations =  7.0

     negative rho (up, down):  3.341E-04 3.146E-04
 
     Adding external electric field

     Computed dipole along edir(3) : 
        Dipole               -0.0501 Ry au,         -0.1274 Debye
        Dipole field         -0.0001 Ry au
 
        Potential amp.        0.0070 Ry
        Total length         38.9923 bohr
 
 
     Adding external electric field

     Computed dipole along edir(3) : 
        Dipole               -0.0501 Ry au,         -0.1274 Debye
        Dipole field         -0.0001 Ry au
 
        Potential amp.        0.0070 Ry
        Total length         38.9923 bohr
 
 
     Magnetic moment per site:
     atom:    1    charge:    3.9628    magn:    0.5814    constr:    0.0000
     atom:    2    charge:    3.9675    magn:    0.5879    constr:    0.0000
     atom:    3    charge:    3.9692    magn:    0.5768    constr:    0.0000
     atom:    4    charge:    3.9455    magn:    0.4013    constr:    0.0000
     atom:    5    charge:    3.9628    magn:    0.5814    constr:    0.0000
     atom:    6    charge:    3.9675    magn:    0.5879    constr:    0.0000
     atom:    7    charge:    3.9689    magn:    0.5853    constr:    0.0000
     atom:    8    charge:    3.9709    magn:    0.5860    constr:    0.0000
     atom:    9    charge:    3.9634    magn:    0.5823    constr:    0.0000
     atom:   10    charge:    3.9675    magn:    0.5862    constr:    0.0000
     atom:   11    charge:    3.9689    magn:    0.5853    constr:    0.0000
     atom:   12    charge:    3.9709    magn:    0.5860    constr:    0.0000
     atom:   13    charge:    3.9628    magn:    0.5814    constr:    0.0000
     atom:   14    charge:    3.9679    magn:    0.5818    constr:    0.0000
     atom:   15    charge:    3.9692    magn:    0.5769    constr:    0.0000
     atom:   16    charge:    3.9709    magn:    0.5860    constr:    0.0000
     atom:   17    charge:    3.9595    magn:    0.5825    constr:    0.0000
     atom:   18    charge:    3.9675    magn:    0.5879    constr:    0.0000
     atom:   19    charge:    3.9692    magn:    0.5769    constr:    0.0000
     atom:   20    charge:    3.9709    magn:    0.5860    constr:    0.0000
     atom:   21    charge:    3.9628    magn:    0.5814    constr:    0.0000
     atom:   22    charge:    3.9679    magn:    0.5818    constr:    0.0000
     atom:   23    charge:    3.9671    magn:    0.5845    constr:    0.0000
     atom:   24    charge:    3.9666    magn:    0.5923    constr:    0.0000
     atom:   25    charge:    3.9624    magn:    0.5833    constr:    0.0000
     atom:   26    charge:    3.9679    magn:    0.5818    constr:    0.0000
     atom:   27    charge:    3.9671    magn:    0.5845    constr:    0.0000
     atom:   28    charge:    3.9709    magn:    0.5860    constr:    0.0000
     atom:   29    charge:    3.9628    magn:    0.5814    constr:    0.0000
     atom:   30    charge:    3.9675    magn:    0.5862    constr:    0.0000
     atom:   31    charge:    3.9689    magn:    0.5853    constr:    0.0000
     atom:   32    charge:    3.9671    magn:    0.5877    constr:    0.0000
     atom:   33    charge:    3.9628    magn:    0.5814    constr:    0.0000
     atom:   34    charge:    3.9675    magn:    0.5862    constr:    0.0000
     atom:   35    charge:    3.9672    magn:    0.5845    constr:    0.0000
     atom:   36    charge:    3.9709    magn:    0.5860    constr:    0.0000
     atom:   37    charge:    0.5782    magn:    0.2444    constr:    0.0000

     total cpu time spent up to now is      769.2 secs

     total energy              =   -3634.43568559 Ry
     Harris-Foulkes estimate   =   -3634.30496026 Ry
     estimated scf accuracy    <       1.30023899 Ry

     total magnetization       =    32.08 Bohr mag/cell
     absolute magnetization    =    33.90 Bohr mag/cell

     iteration # 10     ecut=    44.10 Ry     beta=0.10
     Davidson diagonalization with overlap
     ethr =  2.35E-04,  avg # of iterations =  1.2

     negative rho (up, down):  3.564E-04 3.593E-04
 
     Adding external electric field

     Computed dipole along edir(3) : 
        Dipole               -0.1728 Ry au,         -0.4393 Debye
        Dipole field         -0.0003 Ry au
 
        Potential amp.        0.0240 Ry
        Total length         38.9923 bohr
 
 
     Adding external electric field

     Computed dipole along edir(3) : 
        Dipole               -0.1728 Ry au,         -0.4393 Debye
        Dipole field         -0.0003 Ry au
 
        Potential amp.        0.0240 Ry
        Total length         38.9923 bohr
 
 
     Magnetic moment per site:
     atom:    1    charge:    3.9649    magn:    0.5064    constr:    0.0000
     atom:    2    charge:    3.9694    magn:    0.5133    constr:    0.0000
     atom:    3    charge:    3.9690    magn:    0.5020    constr:    0.0000
     atom:    4    charge:    3.9413    magn:    0.2977    constr:    0.0000
     atom:    5    charge:    3.9650    magn:    0.5064    constr:    0.0000
     atom:    6    charge:    3.9694    magn:    0.5133    constr:    0.0000
     atom:    7    charge:    3.9673    magn:    0.5125    constr:    0.0000
     atom:    8    charge:    3.9718    magn:    0.5114    constr:    0.0000
     atom:    9    charge:    3.9648    magn:    0.5076    constr:    0.0000
     atom:   10    charge:    3.9700    magn:    0.5110    constr:    0.0000
     atom:   11    charge:    3.9673    magn:    0.5125    constr:    0.0000
     atom:   12    charge:    3.9717    magn:    0.5114    constr:    0.0000
     atom:   13    charge:    3.9650    magn:    0.5064    constr:    0.0000
     atom:   14    charge:    3.9692    magn:    0.5072    constr:    0.0000
     atom:   15    charge:    3.9691    magn:    0.5020    constr:    0.0000
     atom:   16    charge:    3.9717    magn:    0.5114    constr:    0.0000
     atom:   17    charge:    3.9690    magn:    0.5025    constr:    0.0000
     atom:   18    charge:    3.9694    magn:    0.5133    constr:    0.0000
     atom:   19    charge:    3.9690    magn:    0.5020    constr:    0.0000
     atom:   20    charge:    3.9717    magn:    0.5114    constr:    0.0000
     atom:   21    charge:    3.9650    magn:    0.5064    constr:    0.0000
     atom:   22    charge:    3.9692    magn:    0.5073    constr:    0.0000
     atom:   23    charge:    3.9688    magn:    0.5097    constr:    0.0000
     atom:   24    charge:    3.9714    magn:    0.5165    constr:    0.0000
     atom:   25    charge:    3.9653    magn:    0.5081    constr:    0.0000
     atom:   26    charge:    3.9691    magn:    0.5073    constr:    0.0000
     atom:   27    charge:    3.9688    magn:    0.5097    constr:    0.0000
     atom:   28    charge:    3.9717    magn:    0.5114    constr:    0.0000
     atom:   29    charge:    3.9650    magn:    0.5064    constr:    0.0000
     atom:   30    charge:    3.9700    magn:    0.5110    constr:    0.0000
     atom:   31    charge:    3.9673    magn:    0.5125    constr:    0.0000
     atom:   32    charge:    3.9711    magn:    0.5118    constr:    0.0000
     atom:   33    charge:    3.9650    magn:    0.5064    constr:    0.0000
     atom:   34    charge:    3.9700    magn:    0.5110    constr:    0.0000
     atom:   35    charge:    3.9688    magn:    0.5097    constr:    0.0000
     atom:   36    charge:    3.9718    magn:    0.5114    constr:    0.0000
     atom:   37    charge:    0.5763    magn:    0.2151    constr:    0.0000

     total cpu time spent up to now is      837.5 secs

     total energy              =   -3634.51529696 Ry
     Harris-Foulkes estimate   =   -3634.48074514 Ry
     estimated scf accuracy    <       0.53198883 Ry

     total magnetization       =    28.14 Bohr mag/cell
     absolute magnetization    =    31.17 Bohr mag/cell

     iteration # 11     ecut=    44.10 Ry     beta=0.10
     Davidson diagonalization with overlap
     ethr =  1.46E-04,  avg # of iterations =  2.0

     negative rho (up, down):  3.889E-04 4.209E-04
 
     Adding external electric field

     Computed dipole along edir(3) : 
        Dipole               -0.2956 Ry au,         -0.7512 Debye
        Dipole field         -0.0005 Ry au
 
        Potential amp.        0.0411 Ry
        Total length         38.9923 bohr
 
 
     Adding external electric field

     Computed dipole along edir(3) : 
        Dipole               -0.2956 Ry au,         -0.7512 Debye
        Dipole field         -0.0005 Ry au
 
        Potential amp.        0.0411 Ry
        Total length         38.9923 bohr
 
 
     Magnetic moment per site:
     atom:    1    charge:    3.9701    magn:    0.4153    constr:    0.0000
     atom:    2    charge:    3.9706    magn:    0.4247    constr:    0.0000
     atom:    3    charge:    3.9715    magn:    0.4103    constr:    0.0000
     atom:    4    charge:    3.9418    magn:    0.1678    constr:    0.0000
     atom:    5    charge:    3.9701    magn:    0.4153    constr:    0.0000
     atom:    6    charge:    3.9706    magn:    0.4247    constr:    0.0000
     atom:    7    charge:    3.9700    magn:    0.4223    constr:    0.0000
     atom:    8    charge:    3.9729    magn:    0.4212    constr:    0.0000
     atom:    9    charge:    3.9706    magn:    0.4156    constr:    0.0000
     atom:   10    charge:    3.9715    magn:    0.4217    constr:    0.0000
     atom:   11    charge:    3.9700    magn:    0.4223    constr:    0.0000
     atom:   12    charge:    3.9729    magn:    0.4212    constr:    0.0000
     atom:   13    charge:    3.9701    magn:    0.4153    constr:    0.0000
     atom:   14    charge:    3.9705    magn:    0.4184    constr:    0.0000
     atom:   15    charge:    3.9716    magn:    0.4103    constr:    0.0000
     atom:   16    charge:    3.9729    magn:    0.4212    constr:    0.0000
     atom:   17    charge:    3.9708    magn:    0.4138    constr:    0.0000
     atom:   18    charge:    3.9706    magn:    0.4247    constr:    0.0000
     atom:   19    charge:    3.9715    magn:    0.4103    constr:    0.0000
     atom:   20    charge:    3.9729    magn:    0.4212    constr:    0.0000
     atom:   21    charge:    3.9701    magn:    0.4153    constr:    0.0000
     atom:   22    charge:    3.9705    magn:    0.4184    constr:    0.0000
     atom:   23    charge:    3.9702    magn:    0.4204    constr:    0.0000
     atom:   24    charge:    3.9676    magn:    0.4319    constr:    0.0000
     atom:   25    charge:    3.9710    magn:    0.4175    constr:    0.0000
     atom:   26    charge:    3.9705    magn:    0.4184    constr:    0.0000
     atom:   27    charge:    3.9702    magn:    0.4204    constr:    0.0000
     atom:   28    charge:    3.9729    magn:    0.4212    constr:    0.0000
     atom:   29    charge:    3.9701    magn:    0.4153    constr:    0.0000
     atom:   30    charge:    3.9714    magn:    0.4217    constr:    0.0000
     atom:   31    charge:    3.9701    magn:    0.4223    constr:    0.0000
     atom:   32    charge:    3.9697    magn:    0.4250    constr:    0.0000
     atom:   33    charge:    3.9701    magn:    0.4153    constr:    0.0000
     atom:   34    charge:    3.9715    magn:    0.4217    constr:    0.0000
     atom:   35    charge:    3.9702    magn:    0.4205    constr:    0.0000
     atom:   36    charge:    3.9729    magn:    0.4212    constr:    0.0000
     atom:   37    charge:    0.5712    magn:    0.1752    constr:    0.0000

     total cpu time spent up to now is      908.9 secs

     total energy              =   -3634.55349733 Ry
     Harris-Foulkes estimate   =   -3634.54355926 Ry
     estimated scf accuracy    <       0.35788332 Ry

     total magnetization       =    25.39 Bohr mag/cell
     absolute magnetization    =    29.21 Bohr mag/cell

     iteration # 12     ecut=    44.10 Ry     beta=0.10
     Davidson diagonalization with overlap
     ethr =  9.83E-05,  avg # of iterations =  2.8

     negative rho (up, down):  3.637E-04 3.784E-04
 
     Adding external electric field

     Computed dipole along edir(3) : 
        Dipole               -0.1758 Ry au,         -0.4467 Debye
        Dipole field         -0.0003 Ry au
 
        Potential amp.        0.0244 Ry
        Total length         38.9923 bohr
 
 
     Adding external electric field

     Computed dipole along edir(3) : 
        Dipole               -0.1758 Ry au,         -0.4467 Debye
        Dipole field         -0.0003 Ry au
 
        Potential amp.        0.0244 Ry
        Total length         38.9923 bohr
 
 
     Magnetic moment per site:
     atom:    1    charge:    3.9679    magn:    0.4145    constr:    0.0000
     atom:    2    charge:    3.9721    magn:    0.4222    constr:    0.0000
     atom:    3    charge:    3.9713    magn:    0.4072    constr:    0.0000
     atom:    4    charge:    3.9434    magn:    0.1540    constr:    0.0000
     atom:    5    charge:    3.9679    magn:    0.4144    constr:    0.0000
     atom:    6    charge:    3.9721    magn:    0.4222    constr:    0.0000
     atom:    7    charge:    3.9724    magn:    0.4191    constr:    0.0000
     atom:    8    charge:    3.9702    magn:    0.4183    constr:    0.0000
     atom:    9    charge:    3.9673    magn:    0.4152    constr:    0.0000
     atom:   10    charge:    3.9713    magn:    0.4205    constr:    0.0000
     atom:   11    charge:    3.9724    magn:    0.4191    constr:    0.0000
     atom:   12    charge:    3.9702    magn:    0.4183    constr:    0.0000
     atom:   13    charge:    3.9679    magn:    0.4144    constr:    0.0000
     atom:   14    charge:    3.9725    magn:    0.4161    constr:    0.0000
     atom:   15    charge:    3.9712    magn:    0.4073    constr:    0.0000
     atom:   16    charge:    3.9702    magn:    0.4184    constr:    0.0000
     atom:   17    charge:    3.9664    magn:    0.4146    constr:    0.0000
     atom:   18    charge:    3.9721    magn:    0.4222    constr:    0.0000
     atom:   19    charge:    3.9713    magn:    0.4073    constr:    0.0000
     atom:   20    charge:    3.9701    magn:    0.4184    constr:    0.0000
     atom:   21    charge:    3.9679    magn:    0.4144    constr:    0.0000
     atom:   22    charge:    3.9725    magn:    0.4161    constr:    0.0000
     atom:   23    charge:    3.9712    magn:    0.4180    constr:    0.0000
     atom:   24    charge:    3.9691    magn:    0.4271    constr:    0.0000
     atom:   25    charge:    3.9664    magn:    0.4186    constr:    0.0000
     atom:   26    charge:    3.9725    magn:    0.4161    constr:    0.0000
     atom:   27    charge:    3.9712    magn:    0.4180    constr:    0.0000
     atom:   28    charge:    3.9702    magn:    0.4183    constr:    0.0000
     atom:   29    charge:    3.9680    magn:    0.4144    constr:    0.0000
     atom:   30    charge:    3.9713    magn:    0.4204    constr:    0.0000
     atom:   31    charge:    3.9724    magn:    0.4191    constr:    0.0000
     atom:   32    charge:    3.9653    magn:    0.4249    constr:    0.0000
     atom:   33    charge:    3.9679    magn:    0.4144    constr:    0.0000
     atom:   34    charge:    3.9713    magn:    0.4205    constr:    0.0000
     atom:   35    charge:    3.9712    magn:    0.4180    constr:    0.0000
     atom:   36    charge:    3.9701    magn:    0.4184    constr:    0.0000
     atom:   37    charge:    0.5645    magn:    0.1642    constr:    0.0000

     total cpu time spent up to now is      984.0 secs

     total energy              =   -3634.53908993 Ry
     Harris-Foulkes estimate   =   -3634.57706884 Ry
     estimated scf accuracy    <       0.98407120 Ry

     total magnetization       =    21.99 Bohr mag/cell
     absolute magnetization    =    26.74 Bohr mag/cell

     iteration # 13     ecut=    44.10 Ry     beta=0.10
     Davidson diagonalization with overlap
     ethr =  9.83E-05,  avg # of iterations =  1.0

     negative rho (up, down):  3.530E-04 3.610E-04
 
     Adding external electric field

     Computed dipole along edir(3) : 
        Dipole               -0.2107 Ry au,         -0.5356 Debye
        Dipole field         -0.0004 Ry au
 
        Potential amp.        0.0293 Ry
        Total length         38.9923 bohr
 
 
     Adding external electric field

     Computed dipole along edir(3) : 
        Dipole               -0.2107 Ry au,         -0.5356 Debye
        Dipole field         -0.0004 Ry au
 
        Potential amp.        0.0293 Ry
        Total length         38.9923 bohr
 
 
     Magnetic moment per site:
     atom:    1    charge:    3.9689    magn:    0.3991    constr:    0.0000
     atom:    2    charge:    3.9718    magn:    0.4067    constr:    0.0000
     atom:    3    charge:    3.9719    magn:    0.3904    constr:    0.0000
     atom:    4    charge:    3.9434    magn:    0.1286    constr:    0.0000
     atom:    5    charge:    3.9688    magn:    0.3991    constr:    0.0000
     atom:    6    charge:    3.9718    magn:    0.4068    constr:    0.0000
     atom:    7    charge:    3.9717    magn:    0.4038    constr:    0.0000
     atom:    8    charge:    3.9711    magn:    0.4021    constr:    0.0000
     atom:    9    charge:    3.9694    magn:    0.3987    constr:    0.0000
     atom:   10    charge:    3.9722    magn:    0.4043    constr:    0.0000
     atom:   11    charge:    3.9717    magn:    0.4038    constr:    0.0000
     atom:   12    charge:    3.9711    magn:    0.4020    constr:    0.0000
     atom:   13    charge:    3.9688    magn:    0.3991    constr:    0.0000
     atom:   14    charge:    3.9715    magn:    0.4013    constr:    0.0000
     atom:   15    charge:    3.9719    magn:    0.3904    constr:    0.0000
     atom:   16    charge:    3.9711    magn:    0.4020    constr:    0.0000
     atom:   17    charge:    3.9709    magn:    0.3971    constr:    0.0000
     atom:   18    charge:    3.9718    magn:    0.4068    constr:    0.0000
     atom:   19    charge:    3.9719    magn:    0.3904    constr:    0.0000
     atom:   20    charge:    3.9711    magn:    0.4021    constr:    0.0000
     atom:   21    charge:    3.9688    magn:    0.3991    constr:    0.0000
     atom:   22    charge:    3.9716    magn:    0.4013    constr:    0.0000
     atom:   23    charge:    3.9712    magn:    0.4022    constr:    0.0000
     atom:   24    charge:    3.9663    magn:    0.4139    constr:    0.0000
     atom:   25    charge:    3.9693    magn:    0.4024    constr:    0.0000
     atom:   26    charge:    3.9716    magn:    0.4013    constr:    0.0000
     atom:   27    charge:    3.9712    magn:    0.4022    constr:    0.0000
     atom:   28    charge:    3.9711    magn:    0.4020    constr:    0.0000
     atom:   29    charge:    3.9688    magn:    0.3991    constr:    0.0000
     atom:   30    charge:    3.9722    magn:    0.4043    constr:    0.0000
     atom:   31    charge:    3.9717    magn:    0.4037    constr:    0.0000
     atom:   32    charge:    3.9699    magn:    0.4076    constr:    0.0000
     atom:   33    charge:    3.9688    magn:    0.3991    constr:    0.0000
     atom:   34    charge:    3.9723    magn:    0.4042    constr:    0.0000
     atom:   35    charge:    3.9712    magn:    0.4022    constr:    0.0000
     atom:   36    charge:    3.9711    magn:    0.4020    constr:    0.0000
     atom:   37    charge:    0.5623    magn:    0.1527    constr:    0.0000

     total cpu time spent up to now is     1051.5 secs

     total energy              =   -3634.55722122 Ry
     Harris-Foulkes estimate   =   -3634.56480617 Ry
     estimated scf accuracy    <       0.18876503 Ry

     total magnetization       =    22.40 Bohr mag/cell
     absolute magnetization    =    27.06 Bohr mag/cell

     iteration # 14     ecut=    44.10 Ry     beta=0.10
     Davidson diagonalization with overlap
     ethr =  5.19E-05,  avg # of iterations =  1.0

     negative rho (up, down):  3.395E-04 3.405E-04
 
     Adding external electric field

     Computed dipole along edir(3) : 
        Dipole               -0.2398 Ry au,         -0.6095 Debye
        Dipole field         -0.0004 Ry au
 
        Potential amp.        0.0333 Ry
        Total length         38.9923 bohr
 
 
     Adding external electric field

     Computed dipole along edir(3) : 
        Dipole               -0.2398 Ry au,         -0.6095 Debye
        Dipole field         -0.0004 Ry au
 
        Potential amp.        0.0333 Ry
        Total length         38.9923 bohr
 
 
     Magnetic moment per site:
     atom:    1    charge:    3.9709    magn:    0.3865    constr:    0.0000
     atom:    2    charge:    3.9716    magn:    0.3947    constr:    0.0000
     atom:    3    charge:    3.9715    magn:    0.3771    constr:    0.0000
     atom:    4    charge:    3.9447    magn:    0.1041    constr:    0.0000
     atom:    5    charge:    3.9709    magn:    0.3865    constr:    0.0000
     atom:    6    charge:    3.9716    magn:    0.3947    constr:    0.0000
     atom:    7    charge:    3.9714    magn:    0.3916    constr:    0.0000
     atom:    8    charge:    3.9716    magn:    0.3887    constr:    0.0000
     atom:    9    charge:    3.9711    magn:    0.3859    constr:    0.0000
     atom:   10    charge:    3.9719    magn:    0.3923    constr:    0.0000
     atom:   11    charge:    3.9714    magn:    0.3916    constr:    0.0000
     atom:   12    charge:    3.9716    magn:    0.3887    constr:    0.0000
     atom:   13    charge:    3.9709    magn:    0.3865    constr:    0.0000
     atom:   14    charge:    3.9720    magn:    0.3893    constr:    0.0000
     atom:   15    charge:    3.9715    magn:    0.3771    constr:    0.0000
     atom:   16    charge:    3.9716    magn:    0.3887    constr:    0.0000
     atom:   17    charge:    3.9712    magn:    0.3860    constr:    0.0000
     atom:   18    charge:    3.9716    magn:    0.3947    constr:    0.0000
     atom:   19    charge:    3.9715    magn:    0.3771    constr:    0.0000
     atom:   20    charge:    3.9716    magn:    0.3887    constr:    0.0000
     atom:   21    charge:    3.9709    magn:    0.3865    constr:    0.0000
     atom:   22    charge:    3.9720    magn:    0.3893    constr:    0.0000
     atom:   23    charge:    3.9718    magn:    0.3893    constr:    0.0000
     atom:   24    charge:    3.9693    magn:    0.4000    constr:    0.0000
     atom:   25    charge:    3.9714    magn:    0.3905    constr:    0.0000
     atom:   26    charge:    3.9720    magn:    0.3893    constr:    0.0000
     atom:   27    charge:    3.9718    magn:    0.3893    constr:    0.0000
     atom:   28    charge:    3.9716    magn:    0.3887    constr:    0.0000
     atom:   29    charge:    3.9709    magn:    0.3865    constr:    0.0000
     atom:   30    charge:    3.9719    magn:    0.3923    constr:    0.0000
     atom:   31    charge:    3.9714    magn:    0.3916    constr:    0.0000
     atom:   32    charge:    3.9691    magn:    0.3970    constr:    0.0000
     atom:   33    charge:    3.9709    magn:    0.3865    constr:    0.0000
     atom:   34    charge:    3.9719    magn:    0.3923    constr:    0.0000
     atom:   35    charge:    3.9718    magn:    0.3893    constr:    0.0000
     atom:   36    charge:    3.9716    magn:    0.3887    constr:    0.0000
     atom:   37    charge:    0.5587    magn:    0.1382    constr:    0.0000

     total cpu time spent up to now is     1118.8 secs

     total energy              =   -3634.55941962 Ry
     Harris-Foulkes estimate   =   -3634.56266873 Ry
     estimated scf accuracy    <       0.05511177 Ry

     total magnetization       =    21.89 Bohr mag/cell
     absolute magnetization    =    26.64 Bohr mag/cell

     iteration # 15     ecut=    44.10 Ry     beta=0.10
     Davidson diagonalization with overlap
     ethr =  1.51E-05,  avg # of iterations =  4.5

     negative rho (up, down):  3.248E-04 3.136E-04
 
     Adding external electric field

     Computed dipole along edir(3) : 
        Dipole               -0.2552 Ry au,         -0.6487 Debye
        Dipole field         -0.0005 Ry au
 
        Potential amp.        0.0355 Ry
        Total length         38.9923 bohr
 
 
     Adding external electric field

     Computed dipole along edir(3) : 
        Dipole               -0.2552 Ry au,         -0.6487 Debye
        Dipole field         -0.0005 Ry au
 
        Potential amp.        0.0355 Ry
        Total length         38.9923 bohr
 
 
     Magnetic moment per site:
     atom:    1    charge:    3.9709    magn:    0.3881    constr:    0.0000
     atom:    2    charge:    3.9717    magn:    0.3960    constr:    0.0000
     atom:    3    charge:    3.9711    magn:    0.3782    constr:    0.0000
     atom:    4    charge:    3.9450    magn:    0.1041    constr:    0.0000
     atom:    5    charge:    3.9709    magn:    0.3881    constr:    0.0000
     atom:    6    charge:    3.9717    magn:    0.3960    constr:    0.0000
     atom:    7    charge:    3.9717    magn:    0.3927    constr:    0.0000
     atom:    8    charge:    3.9717    magn:    0.3899    constr:    0.0000
     atom:    9    charge:    3.9709    magn:    0.3875    constr:    0.0000
     atom:   10    charge:    3.9716    magn:    0.3939    constr:    0.0000
     atom:   11    charge:    3.9717    magn:    0.3927    constr:    0.0000
     atom:   12    charge:    3.9717    magn:    0.3898    constr:    0.0000
     atom:   13    charge:    3.9709    magn:    0.3881    constr:    0.0000
     atom:   14    charge:    3.9716    magn:    0.3911    constr:    0.0000
     atom:   15    charge:    3.9711    magn:    0.3782    constr:    0.0000
     atom:   16    charge:    3.9717    magn:    0.3899    constr:    0.0000
     atom:   17    charge:    3.9710    magn:    0.3878    constr:    0.0000
     atom:   18    charge:    3.9717    magn:    0.3960    constr:    0.0000
     atom:   19    charge:    3.9711    magn:    0.3782    constr:    0.0000
     atom:   20    charge:    3.9717    magn:    0.3899    constr:    0.0000
     atom:   21    charge:    3.9709    magn:    0.3881    constr:    0.0000
     atom:   22    charge:    3.9716    magn:    0.3912    constr:    0.0000
     atom:   23    charge:    3.9711    magn:    0.3910    constr:    0.0000
     atom:   24    charge:    3.9697    magn:    0.4011    constr:    0.0000
     atom:   25    charge:    3.9702    magn:    0.3930    constr:    0.0000
     atom:   26    charge:    3.9716    magn:    0.3912    constr:    0.0000
     atom:   27    charge:    3.9711    magn:    0.3910    constr:    0.0000
     atom:   28    charge:    3.9717    magn:    0.3899    constr:    0.0000
     atom:   29    charge:    3.9709    magn:    0.3881    constr:    0.0000
     atom:   30    charge:    3.9716    magn:    0.3939    constr:    0.0000
     atom:   31    charge:    3.9717    magn:    0.3927    constr:    0.0000
     atom:   32    charge:    3.9697    magn:    0.3984    constr:    0.0000
     atom:   33    charge:    3.9709    magn:    0.3881    constr:    0.0000
     atom:   34    charge:    3.9716    magn:    0.3939    constr:    0.0000
     atom:   35    charge:    3.9711    magn:    0.3910    constr:    0.0000
     atom:   36    charge:    3.9717    magn:    0.3899    constr:    0.0000
     atom:   37    charge:    0.5582    magn:    0.1357    constr:    0.0000

     total cpu time spent up to now is     1200.1 secs

     total energy              =   -3634.56168859 Ry
     Harris-Foulkes estimate   =   -3634.56153525 Ry
     estimated scf accuracy    <       0.01489255 Ry

     total magnetization       =    21.56 Bohr mag/cell
     absolute magnetization    =    26.30 Bohr mag/cell

     iteration # 16     ecut=    44.10 Ry     beta=0.10
     Davidson diagonalization with overlap
     ethr =  4.09E-06,  avg # of iterations =  5.7

     negative rho (up, down):  3.112E-04 2.893E-04
 
     Adding external electric field

     Computed dipole along edir(3) : 
        Dipole               -0.2357 Ry au,         -0.5990 Debye
        Dipole field         -0.0004 Ry au
 
        Potential amp.        0.0328 Ry
        Total length         38.9923 bohr
 
 
     Adding external electric field

     Computed dipole along edir(3) : 
        Dipole               -0.2357 Ry au,         -0.5990 Debye
        Dipole field         -0.0004 Ry au
 
        Potential amp.        0.0328 Ry
        Total length         38.9923 bohr
 
 
     Magnetic moment per site:
     atom:    1    charge:    3.9716    magn:    0.3900    constr:    0.0000
     atom:    2    charge:    3.9712    magn:    0.3980    constr:    0.0000
     atom:    3    charge:    3.9706    magn:    0.3797    constr:    0.0000
     atom:    4    charge:    3.9457    magn:    0.1037    constr:    0.0000
     atom:    5    charge:    3.9716    magn:    0.3900    constr:    0.0000
     atom:    6    charge:    3.9712    magn:    0.3980    constr:    0.0000
     atom:    7    charge:    3.9713    magn:    0.3948    constr:    0.0000
     atom:    8    charge:    3.9721    magn:    0.3912    constr:    0.0000
     atom:    9    charge:    3.9715    magn:    0.3891    constr:    0.0000
     atom:   10    charge:    3.9711    magn:    0.3961    constr:    0.0000
     atom:   11    charge:    3.9713    magn:    0.3948    constr:    0.0000
     atom:   12    charge:    3.9722    magn:    0.3912    constr:    0.0000
     atom:   13    charge:    3.9716    magn:    0.3900    constr:    0.0000
     atom:   14    charge:    3.9711    magn:    0.3935    constr:    0.0000
     atom:   15    charge:    3.9706    magn:    0.3797    constr:    0.0000
     atom:   16    charge:    3.9722    magn:    0.3912    constr:    0.0000
     atom:   17    charge:    3.9717    magn:    0.3898    constr:    0.0000
     atom:   18    charge:    3.9712    magn:    0.3980    constr:    0.0000
     atom:   19    charge:    3.9706    magn:    0.3798    constr:    0.0000
     atom:   20    charge:    3.9722    magn:    0.3912    constr:    0.0000
     atom:   21    charge:    3.9716    magn:    0.3900    constr:    0.0000
     atom:   22    charge:    3.9711    magn:    0.3935    constr:    0.0000
     atom:   23    charge:    3.9707    magn:    0.3929    constr:    0.0000
     atom:   24    charge:    3.9706    magn:    0.4023    constr:    0.0000
     atom:   25    charge:    3.9710    magn:    0.3952    constr:    0.0000
     atom:   26    charge:    3.9711    magn:    0.3935    constr:    0.0000
     atom:   27    charge:    3.9707    magn:    0.3929    constr:    0.0000
     atom:   28    charge:    3.9722    magn:    0.3912    constr:    0.0000
     atom:   29    charge:    3.9716    magn:    0.3900    constr:    0.0000
     atom:   30    charge:    3.9711    magn:    0.3961    constr:    0.0000
     atom:   31    charge:    3.9713    magn:    0.3948    constr:    0.0000
     atom:   32    charge:    3.9706    magn:    0.4003    constr:    0.0000
     atom:   33    charge:    3.9716    magn:    0.3900    constr:    0.0000
     atom:   34    charge:    3.9711    magn:    0.3961    constr:    0.0000
     atom:   35    charge:    3.9707    magn:    0.3929    constr:    0.0000
     atom:   36    charge:    3.9722    magn:    0.3912    constr:    0.0000
     atom:   37    charge:    0.5577    magn:    0.1316    constr:    0.0000

     total cpu time spent up to now is     1288.7 secs

     total energy              =   -3634.56245979 Ry
     Harris-Foulkes estimate   =   -3634.56258930 Ry
     estimated scf accuracy    <       0.08128483 Ry

     total magnetization       =    21.56 Bohr mag/cell
     absolute magnetization    =    26.25 Bohr mag/cell

     iteration # 17     ecut=    44.10 Ry     beta=0.10
     Davidson diagonalization with overlap
     ethr =  4.09E-06,  avg # of iterations =  1.2

     negative rho (up, down):  2.987E-04 2.666E-04
 
     Adding external electric field

     Computed dipole along edir(3) : 
        Dipole               -0.2424 Ry au,         -0.6161 Debye
        Dipole field         -0.0004 Ry au
 
        Potential amp.        0.0337 Ry
        Total length         38.9923 bohr
 
 
     Adding external electric field

     Computed dipole along edir(3) : 
        Dipole               -0.2424 Ry au,         -0.6161 Debye
        Dipole field         -0.0004 Ry au
 
        Potential amp.        0.0337 Ry
        Total length         38.9923 bohr
 
 
     Magnetic moment per site:
     atom:    1    charge:    3.9710    magn:    0.3941    constr:    0.0000
     atom:    2    charge:    3.9703    magn:    0.4019    constr:    0.0000
     atom:    3    charge:    3.9700    magn:    0.3825    constr:    0.0000
     atom:    4    charge:    3.9470    magn:    0.1035    constr:    0.0000
     atom:    5    charge:    3.9710    magn:    0.3941    constr:    0.0000
     atom:    6    charge:    3.9703    magn:    0.4019    constr:    0.0000
     atom:    7    charge:    3.9703    magn:    0.3988    constr:    0.0000
     atom:    8    charge:    3.9724    magn:    0.3939    constr:    0.0000
     atom:    9    charge:    3.9711    magn:    0.3927    constr:    0.0000
     atom:   10    charge:    3.9704    magn:    0.4001    constr:    0.0000
     atom:   11    charge:    3.9703    magn:    0.3988    constr:    0.0000
     atom:   12    charge:    3.9724    magn:    0.3939    constr:    0.0000
     atom:   13    charge:    3.9710    magn:    0.3941    constr:    0.0000
     atom:   14    charge:    3.9707    magn:    0.3976    constr:    0.0000
     atom:   15    charge:    3.9700    magn:    0.3825    constr:    0.0000
     atom:   16    charge:    3.9724    magn:    0.3939    constr:    0.0000
     atom:   17    charge:    3.9713    magn:    0.3941    constr:    0.0000
     atom:   18    charge:    3.9703    magn:    0.4019    constr:    0.0000
     atom:   19    charge:    3.9700    magn:    0.3825    constr:    0.0000
     atom:   20    charge:    3.9724    magn:    0.3939    constr:    0.0000
     atom:   21    charge:    3.9710    magn:    0.3941    constr:    0.0000
     atom:   22    charge:    3.9707    magn:    0.3976    constr:    0.0000
     atom:   23    charge:    3.9701    magn:    0.3962    constr:    0.0000
     atom:   24    charge:    3.9710    magn:    0.4051    constr:    0.0000
     atom:   25    charge:    3.9713    magn:    0.3993    constr:    0.0000
     atom:   26    charge:    3.9707    magn:    0.3976    constr:    0.0000
     atom:   27    charge:    3.9701    magn:    0.3962    constr:    0.0000
     atom:   28    charge:    3.9724    magn:    0.3939    constr:    0.0000
     atom:   29    charge:    3.9710    magn:    0.3941    constr:    0.0000
     atom:   30    charge:    3.9704    magn:    0.4001    constr:    0.0000
     atom:   31    charge:    3.9703    magn:    0.3988    constr:    0.0000
     atom:   32    charge:    3.9711    magn:    0.4042    constr:    0.0000
     atom:   33    charge:    3.9710    magn:    0.3941    constr:    0.0000
     atom:   34    charge:    3.9704    magn:    0.4001    constr:    0.0000
     atom:   35    charge:    3.9701    magn:    0.3962    constr:    0.0000
     atom:   36    charge:    3.9724    magn:    0.3939    constr:    0.0000
     atom:   37    charge:    0.5572    magn:    0.1248    constr:    0.0000

     total cpu time spent up to now is     1356.9 secs

     total energy              =   -3634.56438402 Ry
     Harris-Foulkes estimate   =   -3634.56357282 Ry
     estimated scf accuracy    <       0.05140662 Ry

     total magnetization       =    21.70 Bohr mag/cell
     absolute magnetization    =    26.30 Bohr mag/cell

     iteration # 18     ecut=    44.10 Ry     beta=0.10
     Davidson diagonalization with overlap
     ethr =  4.09E-06,  avg # of iterations =  1.2

     negative rho (up, down):  2.915E-04 2.537E-04
 
     Adding external electric field

     Computed dipole along edir(3) : 
        Dipole               -0.2402 Ry au,         -0.6105 Debye
        Dipole field         -0.0004 Ry au
 
        Potential amp.        0.0334 Ry
        Total length         38.9923 bohr
 
 
     Adding external electric field

     Computed dipole along edir(3) : 
        Dipole               -0.2402 Ry au,         -0.6105 Debye
        Dipole field         -0.0004 Ry au
 
        Potential amp.        0.0334 Ry
        Total length         38.9923 bohr
 
 
     Magnetic moment per site:
     atom:    1    charge:    3.9716    magn:    0.3909    constr:    0.0000
     atom:    2    charge:    3.9699    magn:    0.3990    constr:    0.0000
     atom:    3    charge:    3.9699    magn:    0.3787    constr:    0.0000
     atom:    4    charge:    3.9469    magn:    0.0957    constr:    0.0000
     atom:    5    charge:    3.9716    magn:    0.3909    constr:    0.0000
     atom:    6    charge:    3.9699    magn:    0.3990    constr:    0.0000
     atom:    7    charge:    3.9703    magn:    0.3955    constr:    0.0000
     atom:    8    charge:    3.9726    magn:    0.3901    constr:    0.0000
     atom:    9    charge:    3.9718    magn:    0.3891    constr:    0.0000
     atom:   10    charge:    3.9702    magn:    0.3971    constr:    0.0000
     atom:   11    charge:    3.9703    magn:    0.3955    constr:    0.0000
     atom:   12    charge:    3.9726    magn:    0.3901    constr:    0.0000
     atom:   13    charge:    3.9716    magn:    0.3909    constr:    0.0000
     atom:   14    charge:    3.9701    magn:    0.3951    constr:    0.0000
     atom:   15    charge:    3.9699    magn:    0.3787    constr:    0.0000
     atom:   16    charge:    3.9726    magn:    0.3901    constr:    0.0000
     atom:   17    charge:    3.9717    magn:    0.3911    constr:    0.0000
     atom:   18    charge:    3.9699    magn:    0.3990    constr:    0.0000
[...]
     8.8886   8.9471   9.0491   9.1830   9.2547   9.3158   9.3267   9.4538
     9.4703   9.5293   9.5688   9.6433   9.8022  10.0228  10.1866  10.1998
    10.3783  10.3885  10.7429  10.8064  10.9174  10.9989  11.0026  11.0663
    11.1298  11.2725  11.5298  11.5718  11.5887  11.7378  11.8468  11.9460
    11.9598  12.0672  12.1909  12.2441  12.3073  12.3676  12.4271  12.6478
    12.8260  12.9958  13.0835  13.1158  13.1690  13.1769  13.2531  13.3162
    13.4470  13.4813

 ------ SPIN DOWN ----------


          k = 0.0000 0.0000 0.0000 ( 34645 PWs)   bands (ev):

    -7.9521  -6.2635  -4.9108  -3.2552  -3.1574  -3.1574  -3.1434  -3.1434
    -3.1380  -3.1072  -2.3287  -2.3287  -2.3280  -2.3190  -2.3190  -2.3099
    -2.2445  -1.7573  -1.7573  -1.5322  -1.5089  -1.5089  -1.4529  -1.4315
    -1.4314  -1.3672  -0.9616  -0.9616  -0.9355  -0.9355  -0.9305  -0.8735
    -0.8337  -0.8337  -0.7958  -0.7845  -0.7582  -0.7582  -0.7380  -0.7380
    -0.7330  -0.7330  -0.7008  -0.6785  -0.6785  -0.6453  -0.6452  -0.6060
    -0.4227  -0.4039  -0.4039  -0.3975  -0.3482  -0.3060  -0.2838  -0.2838
    -0.2617  -0.1427  -0.0009  -0.0008   0.0205   0.0604   0.0712   0.0713
     0.1107   0.1108   0.2079   0.2079   0.3075   0.3075   0.3174   0.3415
     0.3415   0.3657   0.3898   0.4784   0.4785   0.4806   0.5604   0.5605
     0.6243   0.6244   0.6336   0.6336   0.6341   0.6521   0.6522   0.6548
     0.6548   0.6650   0.6964   0.6965   0.7171   0.7171   0.7268   0.7466
     0.7466   0.7752   0.7753   0.7951   0.8032   0.8032   0.8108   0.8108
     0.8113   0.8172   0.8822   0.8822   0.8860   0.8860   0.9077   0.9713
     0.9714   0.9959   1.0287   1.1128   1.1128   1.1490   1.1490   1.1585
     1.1847   1.1847   1.2915   1.2915   1.2918   1.2999   1.3050   1.3739
     1.3934   1.4761   1.4761   1.5695   1.5695   1.5820   1.5820   1.6626
     1.6626   1.7136   1.7136   1.7139   1.7172   1.7403   1.7404   1.7952
     1.7952   1.8501   1.8572   1.8572   1.8724   1.8733   1.8734   1.9162
     1.9421   1.9421   1.9481   1.9538   1.9538   1.9555   1.9616   1.9617
     1.9828   1.9845   1.9846   2.0024   2.0024   2.0508   2.0543   2.0602
     2.0743   2.0743   2.0758   2.0926   2.0927   2.1115   2.1117   2.1194
     2.1194   2.1523   2.1523   2.1573   2.1597   2.1597   2.1617   2.1840
     2.2220   2.2285   2.2285   2.2341   2.2341   2.2959   2.2959   2.3557
     2.3557   2.3731   2.3762   2.3791   2.3791   2.5393   2.7548   2.7824
     2.7825   3.1520   3.1520   3.1628   4.0029   4.0030   4.3642   5.3514
     5.3514   5.3586   5.7488   5.7488   6.5181   6.6873   7.0529   7.0534
     7.1519   7.2954   7.2955   7.3037   7.3037   7.6591   7.6592   7.7100
     7.7991   7.7991   8.0372   8.0372   8.2294   8.3154   8.3156   8.6910
     9.0299   9.0531   9.1806   9.7056   9.7056   9.7600   9.7601   9.7911
     9.8632   9.8632  10.1077  10.1077  10.1201  10.2162  10.2163  10.2592
    10.2618  10.2619  10.4470  10.9501  10.9633  10.9634  10.9916  10.9917
    11.0058  11.0480  11.2337  11.3241  11.4480  11.6061  11.6062  11.6590
    11.6632  11.6633  11.7789  11.7998  11.8087  11.8092  11.8092  11.8161
    11.8162  12.1439  12.7061  12.7062  12.7243  12.8267  12.8267  12.8951
    13.3013  13.3013

          k = 0.0000 0.0510 0.0000 ( 34862 PWs)   bands (ev):

    -7.9412  -5.8667  -4.7313  -4.5358  -3.7012  -3.6877  -3.5079  -2.8923
    -2.6612  -2.6289  -2.2371  -2.2311  -2.1049  -2.0339  -1.9813  -1.8517
    -1.8503  -1.7726  -1.6896  -1.6325  -1.4891  -1.4567  -1.3895  -1.3729
    -1.3158  -1.2842  -1.2673  -1.2600  -1.2091  -1.1824  -1.1367  -1.0775
    -1.0136  -0.9516  -0.9144  -0.9018  -0.8710  -0.8020  -0.7563  -0.7542
    -0.7260  -0.7184  -0.7013  -0.6045  -0.5935  -0.5453  -0.4822  -0.4307
    -0.4066  -0.3872  -0.3260  -0.3170  -0.2773  -0.2770  -0.2484  -0.2244
    -0.2001  -0.1180  -0.0807  -0.0483  -0.0386  -0.0089   0.0501   0.0844
     0.1182   0.1510   0.1865   0.1932   0.2118   0.2353   0.2449   0.2920
     0.3159   0.3230   0.3632   0.3725   0.3790   0.4112   0.4227   0.4394
     0.4518   0.4901   0.5172   0.5233   0.5478   0.5988   0.6011   0.6197
     0.6349   0.6393   0.6551   0.6706   0.6734   0.6955   0.7107   0.7125
     0.7329   0.7447   0.7636   0.7811   0.8077   0.8089   0.8333   0.8383
     0.8646   0.8768   0.8859   0.9000   0.9136   0.9345   0.9587   0.9837
     0.9892   1.0134   1.0201   1.0462   1.0665   1.1143   1.1346   1.1502
     1.1930   1.2142   1.2638   1.2820   1.2873   1.3071   1.3228   1.3385
     1.3483   1.3577   1.3773   1.3955   1.4253   1.4520   1.4882   1.5306
     1.5475   1.5809   1.5833   1.6149   1.6156   1.6854   1.6923   1.7026
     1.7501   1.7586   1.7630   1.7683   1.7687   1.7843   1.8244   1.8403
     1.8619   1.8808   1.9076   1.9185   1.9517   1.9533   1.9675   1.9702
     1.9986   2.0221   2.0222   2.0344   2.0551   2.0868   2.0994   2.1086
     2.1547   2.1603   2.1680   2.1744   2.1951   2.2051   2.2515   2.2628
     2.2713   2.2784   2.2929   2.3009   2.3060   2.3131   2.3379   2.3758
     2.3827   2.4124   2.4132   2.4293   2.4312   2.4645   2.4971   2.5332
     2.7142   2.7573   2.8584   2.9080   2.9188   3.0507   3.1269   3.2799
     3.5439   3.6335   3.6396   3.8724   4.2197   4.3947   4.3983   4.6186
     4.6391   4.8433   5.0865   5.3211   5.4044   5.4352   5.9122   5.9305
     6.3966   6.5846   6.6321   6.8199   7.0541   7.1831   7.3762   7.4424
     7.6613   7.7277   8.2060   8.3969   8.5320   8.6409   8.9911   9.0013
     9.0690   9.0802   9.2032   9.2515   9.3059   9.3502   9.4520   9.4770
     9.5799   9.5922   9.6646   9.7641   9.8198  10.1438  10.2541  10.3406
    10.5056  10.5061  10.8196  10.8296  10.9406  11.0779  11.1244  11.1516
    11.1655  11.3222  11.5615  11.6118  11.6428  11.7900  11.8541  11.9633
    12.0405  12.1506  12.2921  12.3165  12.3481  12.4612  12.5167  12.6711
    12.8325  13.0264  13.1171  13.1577  13.2016  13.2149  13.3137  13.3922
    13.4923  13.5315

          k = 0.0442 0.0255 0.0000 ( 34862 PWs)   bands (ev):

    -7.9412  -5.8667  -4.7313  -4.5358  -3.7012  -3.6877  -3.5079  -2.8923
    -2.6612  -2.6289  -2.2371  -2.2311  -2.1049  -2.0340  -1.9813  -1.8517
    -1.8503  -1.7726  -1.6897  -1.6325  -1.4890  -1.4567  -1.3895  -1.3728
    -1.3158  -1.2842  -1.2673  -1.2600  -1.2091  -1.1825  -1.1367  -1.0775
    -1.0136  -0.9516  -0.9144  -0.9017  -0.8710  -0.8019  -0.7563  -0.7543
    -0.7260  -0.7185  -0.7012  -0.6045  -0.5935  -0.5454  -0.4822  -0.4307
    -0.4066  -0.3872  -0.3260  -0.3170  -0.2773  -0.2771  -0.2484  -0.2244
    -0.2001  -0.1180  -0.0806  -0.0483  -0.0386  -0.0089   0.0501   0.0844
     0.1182   0.1510   0.1865   0.1932   0.2118   0.2353   0.2449   0.2920
     0.3160   0.3230   0.3633   0.3725   0.3790   0.4112   0.4227   0.4394
     0.4519   0.4901   0.5171   0.5233   0.5478   0.5988   0.6010   0.6197
     0.6350   0.6393   0.6552   0.6705   0.6734   0.6954   0.7107   0.7125
     0.7329   0.7447   0.7636   0.7811   0.8076   0.8089   0.8333   0.8383
     0.8646   0.8768   0.8859   0.9000   0.9135   0.9345   0.9587   0.9837
     0.9892   1.0134   1.0201   1.0462   1.0665   1.1143   1.1346   1.1502
     1.1929   1.2142   1.2638   1.2820   1.2873   1.3071   1.3228   1.3385
     1.3483   1.3577   1.3773   1.3954   1.4253   1.4521   1.4881   1.5306
     1.5475   1.5809   1.5833   1.6149   1.6156   1.6854   1.6923   1.7026
     1.7501   1.7586   1.7630   1.7683   1.7687   1.7843   1.8244   1.8402
     1.8620   1.8809   1.9076   1.9185   1.9518   1.9533   1.9675   1.9703
     1.9986   2.0222   2.0222   2.0344   2.0551   2.0868   2.0994   2.1086
     2.1547   2.1603   2.1680   2.1744   2.1951   2.2051   2.2515   2.2628
     2.2713   2.2784   2.2929   2.3009   2.3060   2.3131   2.3379   2.3758
     2.3827   2.4124   2.4132   2.4294   2.4313   2.4645   2.4971   2.5332
     2.7142   2.7573   2.8584   2.9080   2.9189   3.0507   3.1268   3.2800
     3.5439   3.6335   3.6395   3.8724   4.2198   4.3948   4.3982   4.6186
     4.6391   4.8433   5.0865   5.3211   5.4043   5.4352   5.9123   5.9305
     6.3966   6.5846   6.6321   6.8199   7.0541   7.1830   7.3762   7.4423
     7.6612   7.7277   8.2060   8.3969   8.5319   8.6409   8.9911   9.0013
     9.0690   9.0801   9.2032   9.2515   9.3059   9.3502   9.4519   9.4770
     9.5799   9.5922   9.6646   9.7641   9.8198  10.1437  10.2542  10.3406
    10.5056  10.5061  10.8196  10.8297  10.9406  11.0779  11.1244  11.1515
    11.1655  11.3223  11.5615  11.6118  11.6428  11.7900  11.8540  11.9634
    12.0405  12.1506  12.2920  12.3165  12.3482  12.4612  12.5167  12.6711
    12.8326  13.0264  13.1171  13.1578  13.2016  13.2148  13.3137  13.3922
    13.4923  13.5315

          k = 0.0442 0.0765 0.0000 ( 34881 PWs)   bands (ev):

    -7.9360  -5.1115  -5.1055  -5.0659  -3.8644  -3.8641  -3.7570  -2.3443
    -2.3230  -2.3143  -2.2848  -2.2771  -2.2427  -1.8512  -1.8454  -1.7449
    -1.6670  -1.6553  -1.6447  -1.6429  -1.6340  -1.6214  -1.5633  -1.4912
    -1.4865  -1.3175  -1.3138  -1.1780  -1.1724  -1.1508  -1.1412  -1.1378
    -1.1105  -1.0855  -1.0434  -1.0417  -0.9817  -0.9556  -0.9441  -0.8852
    -0.6020  -0.5844  -0.5540  -0.5493  -0.5481  -0.5408  -0.5124  -0.4890
    -0.4514  -0.3219  -0.2275  -0.1895  -0.1786  -0.1663  -0.1505  -0.1469
    -0.1434  -0.0616  -0.0546  -0.0234  -0.0138   0.0224   0.0273   0.0644
     0.0858   0.0984   0.1014   0.1127   0.1148   0.1693   0.2804   0.2863
     0.3002   0.3169   0.3372   0.3622   0.3905   0.4039   0.4241   0.4289
     0.4294   0.4405   0.4417   0.4451   0.4645   0.4834   0.4845   0.4986
     0.5083   0.5147   0.5202   0.5717   0.5872   0.6480   0.6959   0.7324
     0.7327   0.7761   0.7882   0.8049   0.8128   0.8186   0.8437   0.8583
     0.8649   0.8675   0.9117   0.9178   0.9203   0.9540   0.9789   1.0153
     1.0390   1.0510   1.0820   1.1538   1.1667   1.1719   1.2045   1.2182
     1.2392   1.2554   1.2608   1.2640   1.2642   1.2855   1.2898   1.2954
     1.2975   1.3268   1.3624   1.3849   1.4086   1.4204   1.4443   1.4915
     1.5086   1.5191   1.5462   1.5943   1.6052   1.6110   1.6184   1.6527
     1.6738   1.6858   1.6913   1.7006   1.7149   1.7194   1.7247   1.7708
     1.7967   1.8070   1.8552   1.8609   1.8714   1.8857   1.9047   1.9152
     2.0012   2.0721   2.0916   2.1050   2.1179   2.1232   2.1819   2.2011
     2.2154   2.2173   2.2226   2.2558   2.2665   2.2823   2.2882   2.3033
     2.3063   2.3237   2.3255   2.3317   2.3367   2.3663   2.3905   2.4138
     2.4225   2.4242   2.4341   2.4412   2.4515   2.4597   2.8651   2.8770
     3.0330   3.0652   3.0712   3.1924   3.3619   3.3743   3.4087   3.7272
     3.7347   3.9179   4.0398   4.0538   4.1218   4.4834   4.4974   4.7515
     4.8228   4.8778   4.8843   5.0980   5.1217   5.2894   5.4200   5.4261
     5.4790   5.7641   5.8230   5.8255   6.8053   6.8180   7.1144   7.8235
     7.8239   7.8338   7.9887   7.9926   8.2690   8.4329   8.4552   8.4984
     8.9358   8.9471   8.9777   9.0840   9.1467   9.2941   9.3037   9.3912
     9.5433   9.7866   9.8121   9.9167   9.9205  10.0447  10.7945  10.8282
    10.8284  11.0604  11.2553  11.3065  11.3319  11.3595  11.4101  11.6142
    11.8771  11.8843  11.8911  11.9362  11.9410  11.9773  12.0101  12.0143
    12.3343  12.3374  12.3594  12.4812  12.6576  12.6779  12.7403  12.7574
    12.7576  12.8245  12.8587  13.0131  13.0514  13.0771  13.0773  13.2311
    13.3763  13.4045

          k = 0.0442-0.0255 0.0000 ( 34862 PWs)   bands (ev):

    -7.9412  -5.8667  -4.7313  -4.5358  -3.7012  -3.6877  -3.5079  -2.8923
    -2.6612  -2.6289  -2.2371  -2.2311  -2.1049  -2.0340  -1.9813  -1.8517
    -1.8503  -1.7726  -1.6896  -1.6325  -1.4891  -1.4567  -1.3895  -1.3729
    -1.3158  -1.2842  -1.2673  -1.2600  -1.2091  -1.1824  -1.1367  -1.0775
    -1.0136  -0.9516  -0.9144  -0.9018  -0.8710  -0.8020  -0.7563  -0.7542
    -0.7260  -0.7184  -0.7013  -0.6045  -0.5935  -0.5453  -0.4822  -0.4307
    -0.4066  -0.3872  -0.3260  -0.3171  -0.2773  -0.2771  -0.2484  -0.2244
    -0.2001  -0.1179  -0.0806  -0.0483  -0.0386  -0.0089   0.0501   0.0844
     0.1182   0.1510   0.1865   0.1932   0.2118   0.2354   0.2449   0.2920
     0.3159   0.3230   0.3632   0.3725   0.3790   0.4112   0.4227   0.4394
     0.4518   0.4901   0.5172   0.5233   0.5478   0.5987   0.6011   0.6197
     0.6349   0.6393   0.6551   0.6706   0.6734   0.6954   0.7107   0.7125
     0.7329   0.7447   0.7636   0.7811   0.8077   0.8089   0.8333   0.8383
     0.8646   0.8768   0.8859   0.9000   0.9136   0.9345   0.9587   0.9837
     0.9892   1.0134   1.0201   1.0462   1.0665   1.1143   1.1346   1.1502
     1.1930   1.2143   1.2638   1.2820   1.2873   1.3071   1.3228   1.3385
     1.3483   1.3576   1.3773   1.3955   1.4253   1.4521   1.4882   1.5306
     1.5475   1.5809   1.5833   1.6149   1.6156   1.6854   1.6923   1.7026
     1.7501   1.7586   1.7630   1.7683   1.7687   1.7843   1.8244   1.8403
     1.8620   1.8809   1.9076   1.9185   1.9517   1.9533   1.9675   1.9703
     1.9986   2.0221   2.0222   2.0344   2.0551   2.0868   2.0994   2.1086
     2.1547   2.1603   2.1680   2.1744   2.1951   2.2051   2.2515   2.2628
     2.2713   2.2784   2.2929   2.3009   2.3060   2.3131   2.3379   2.3758
     2.3827   2.4124   2.4132   2.4293   2.4312   2.4645   2.4971   2.5332
     2.7142   2.7573   2.8584   2.9080   2.9188   3.0507   3.1269   3.2799
     3.5439   3.6335   3.6396   3.8724   4.2197   4.3947   4.3983   4.6186
     4.6391   4.8433   5.0865   5.3211   5.4044   5.4352   5.9122   5.9305
     6.3966   6.5846   6.6321   6.8199   7.0541   7.1831   7.3762   7.4424
     7.6613   7.7277   8.2060   8.3969   8.5320   8.6409   8.9911   9.0013
     9.0690   9.0802   9.2032   9.2515   9.3059   9.3502   9.4520   9.4770
     9.5799   9.5922   9.6646   9.7641   9.8198  10.1438  10.2541  10.3406
    10.5056  10.5061  10.8196  10.8296  10.9406  11.0779  11.1244  11.1516
    11.1655  11.3222  11.5615  11.6118  11.6428  11.7900  11.8541  11.9633
    12.0405  12.1506  12.2921  12.3165  12.3481  12.4612  12.5167  12.6711
    12.8325  13.0264  13.1171  13.1577  13.2017  13.2149  13.3137  13.3922
    13.4923  13.5315

     the Fermi energy is     2.1791 ev

!    total energy              =   -3634.59754792 Ry
     Harris-Foulkes estimate   =   -3634.59754708 Ry
     estimated scf accuracy    <       0.00000063 Ry

     The total energy is the sum of the following terms:

     one-electron contribution =  -24256.73689169 Ry
     hartree contribution      =   12528.69726314 Ry
     xc contribution           =   -1509.24264951 Ry
     ewald contribution        =    9602.84736434 Ry
     electric field correction =       0.00005734 Ry
     smearing contrib. (-TS)   =      -0.16269154 Ry

     total magnetization       =    20.72 Bohr mag/cell
     absolute magnetization    =    24.57 Bohr mag/cell

     convergence has been achieved in  11 iterations

     Forces acting on atoms (Ry/au):


     negative rho (up, down):  2.635E-04 2.026E-04
     atom    1 type  1   force =     0.00030702    0.00003447    0.00510599
     atom    2 type  1   force =    -0.00004433   -0.00051921   -0.00467846
     atom    3 type  1   force =    -0.00051369   -0.00029154   -0.00042167
     atom    4 type  1   force =    -0.00004915   -0.00004791   -0.00049361
     atom    5 type  1   force =     0.00016237    0.00023531    0.00509555
     atom    6 type  1   force =    -0.00049534    0.00020075   -0.00467176
     atom    7 type  1   force =    -0.00039160    0.00017656   -0.00020339
     atom    8 type  1   force =     0.00007944    0.00000687   -0.00004864
     atom    9 type  1   force =     0.00002688    0.00001692    0.00476676
     atom   10 type  1   force =     0.00004691    0.00003596   -0.00396452
     atom   11 type  1   force =     0.00000247   -0.00040335   -0.00021566
     atom   12 type  1   force =     0.00008674    0.00010224   -0.00005302
     atom   13 type  1   force =    -0.00034098   -0.00001919    0.00511559
     atom   14 type  1   force =     0.00236118   -0.00128537   -0.00646933
     atom   15 type  1   force =     0.00048208   -0.00030635   -0.00040120
     atom   16 type  1   force =     0.00003339   -0.00008688   -0.00004094
     atom   17 type  1   force =    -0.00006577   -0.00006384    0.00435997
     atom   18 type  1   force =     0.00049117    0.00024919   -0.00463766
     atom   19 type  1   force =    -0.00003045    0.00052140   -0.00039638
     atom   20 type  1   force =    -0.00004337    0.00002454   -0.00003208
     atom   21 type  1   force =    -0.00020768   -0.00027167    0.00510546
     atom   22 type  1   force =     0.00004276    0.00271038   -0.00649480
     atom   23 type  1   force =     0.00021533    0.00016698   -0.00020055
     atom   24 type  1   force =     0.00004958    0.00008847    0.00122576
     atom   25 type  1   force =     0.00003766    0.00004420    0.00570302
     atom   26 type  1   force =    -0.00231098   -0.00130667   -0.00643603
     atom   27 type  1   force =     0.00002945   -0.00025419   -0.00020265
     atom   28 type  1   force =    -0.00002160   -0.00013906   -0.00003118
     atom   29 type  1   force =    -0.00009348    0.00023826    0.00507953
     atom   30 type  1   force =     0.00000957   -0.00013786   -0.00386931
     atom   31 type  1   force =     0.00043278    0.00019692   -0.00020379
     atom   32 type  1   force =    -0.00003086   -0.00005662    0.00078660
     atom   33 type  1   force =     0.00018319   -0.00021139    0.00508101
     atom   34 type  1   force =    -0.00008660    0.00006951   -0.00390415
     atom   35 type  1   force =    -0.00021548    0.00020418   -0.00021747
     atom   36 type  1   force =    -0.00012098    0.00009829   -0.00002116
     atom   37 type  2   force =    -0.00001763   -0.00002030    0.00088416

     Total force =     0.022262     Total SCF correction =     0.002127
 !ASE

     Writing output data file calc.save
 
     init_run     :     26.51s CPU     30.82s WALL (       1 calls)
     electrons    :  15475.66s CPU  17802.20s WALL (      10 calls)
     update_pot   :     19.99s CPU     21.31s WALL (       9 calls)
     forces       :    459.62s CPU    476.31s WALL (      10 calls)

     Called by init_run:
     wfcinit      :     17.51s CPU     21.26s WALL (       1 calls)
     potinit      :      0.95s CPU      1.03s WALL (       1 calls)

     Called by electrons:
     c_bands      :  10248.11s CPU  12030.24s WALL (     237 calls)
     sum_band     :   3777.55s CPU   4219.40s WALL (     237 calls)
     v_of_rho     :     82.49s CPU     96.10s WALL (     247 calls)
     newd         :   1402.07s CPU   1488.65s WALL (     247 calls)
     mix_rho      :     15.82s CPU     19.58s WALL (     237 calls)

     Called by c_bands:
     init_us_2    :     54.91s CPU     58.17s WALL (    4850 calls)
     cegterg      :   9930.77s CPU  11698.76s WALL (    2370 calls)

     Called by *egterg:
     h_psi        :   5119.33s CPU   6517.28s WALL (    6656 calls)
     s_psi        :    818.72s CPU    845.22s WALL (    6656 calls)
     g_psi        :     20.37s CPU     20.91s WALL (    4276 calls)
     cdiaghg      :   1743.70s CPU   1786.24s WALL (    6556 calls)

     Called by h_psi:
     add_vuspsi   :    827.67s CPU    855.04s WALL (    6656 calls)

     General routines
     calbec       :   1281.25s CPU   1307.36s WALL (    9126 calls)
     fft          :     82.07s CPU     96.24s WALL (    7747 calls)
     ffts         :      1.12s CPU      1.55s WALL (     968 calls)
     fftw         :   2862.05s CPU   4496.20s WALL ( 3548850 calls)
     interpolate  :      8.98s CPU     13.02s WALL (     968 calls)
     davcio       :      0.00s CPU      0.38s WALL (      10 calls)
 
     Parallel routines
     fft_scatter  :   1702.77s CPU   2654.22s WALL ( 3557565 calls)
 
     PWSCF        :     4h27m CPU        5h 6m WALL

 
   This run was terminated on:  19:59:31  10Mar2017            

=------------------------------------------------------------------------------=
   JOB DONE.
=------------------------------------------------------------------------------=
