  python dir          : /home/vossj/suncat/lib/python2.7/site-packages/espresso
  espresso dir        : /home/vossj/suncat/esdld/espresso-dynpy-beef/bin
  pseudo dir          : /home/alatimer/bin/psp/esp_psp_w_gbrvRu/
  ase-espresso py git : ffa2778-git



     Program PWSCF v.5.1rc2 (svn rev. ) starts on 18Mar2017 at 15:51:47 

     This program is part of the open-source Quantum ESPRESSO suite
     for quantum simulation of materials; please cite
         "P. Giannozzi et al., J. Phys.:Condens. Matter 21 395502 (2009);
          URL http://www.quantum-espresso.org", 
     in publications or presentations arising from this work. More details at
     http://www.quantum-espresso.org/quote

     Parallel version (MPI), running on    16 processors
     R & G space division:  proc/nbgrp/npool/nimage =      16
     Reading input from pw.inp
     Message from routine read_cards :
     DEPRECATED: no units specified in CELL_PARAMETERS card

     Current dimensions of program PWSCF are:
     Max number of different atomic species (ntypx) = 10
     Max number of k-points (npk) =  40000
     Max angular momentum in pseudopotentials (lmaxx) =  3
     Presently no symmetry can be used with electric field


     IMPORTANT: XC functional enforced from input :
     Exchange-correlation      = RPBE ( 1  4 28  4 0)
     Any further DFT definition will be discarded
     Please, verify this is what you really want

               file Ni.UPF: wavefunction(s)  3D renormalized

     Subspace diagonalization in iterative solution of the eigenvalue problem:
     a serial algorithm will be used

 
     Parallelization info
     --------------------
     sticks:   dense  smooth     PW     G-vecs:    dense   smooth      PW
     Min         386     154     42                68872    17389    2480
     Max         387     155     43                68885    17439    2491
     Sum        6181    2479    673              1102011   278611   39737
 
     Generating pointlists ...
     new r_m :   0.4125 (alat units)  0.7795 (a.u.) for type    1
     new r_m :   0.4125 (alat units)  0.7795 (a.u.) for type    2


     bravais-lattice index     =            0
     lattice parameter (alat)  =       1.8897  a.u.
     unit-cell volume          =    7046.4111 (a.u.)^3
     number of atoms/cell      =           44
     number of atomic types    =            2
     number of electrons       =       408.00
     number of Kohn-Sham states=          304
     kinetic-energy cutoff     =      44.0992  Ry
     charge density cutoff     =     440.9919  Ry
     convergence threshold     =      7.3E-07
     mixing beta               =       0.1000
     number of iterations used =           10  plain     mixing
     Exchange-correlation      = RPBE ( 1  4 28  4 0)
     nstep                     =           50


     celldm(1)=   1.889726  celldm(2)=   0.000000  celldm(3)=   0.000000
     celldm(4)=   0.000000  celldm(5)=   0.000000  celldm(6)=   0.000000

     crystal axes: (cart. coord. in units of alat)
               a(1) = (   7.548011   0.000000   0.000000 )  
               a(2) = (  -3.774005   6.536769   0.000000 )  
               a(3) = (   0.000000   0.000000  21.162925 )  

     reciprocal axes: (cart. coord. in units 2 pi/alat)
               b(1) = (  0.132485  0.076490  0.000000 )  
               b(2) = (  0.000000  0.152981  0.000000 )  
               b(3) = (  0.000000  0.000000  0.047252 )  


     PseudoPot. # 1 for Ni read from file:
     /home/alatimer/bin/psp/esp_psp_w_gbrvRu/Ni.UPF
     MD5 check sum: 8b2449ee0060d9c33484ccd47bb60870
     Pseudo is Ultrasoft + core correction, Zval = 10.0
     Generated using "atomic" code by A. Dal Corso  v.5.0.2 svn rev. 9415
     Using radial grid of 1195 points,  6 beta functions with: 
                l(1) =   0
                l(2) =   0
                l(3) =   1
                l(4) =   1
                l(5) =   2
                l(6) =   2
     Q(r) pseudized with 0 coefficients 


     PseudoPot. # 2 for  O read from file:
     /home/alatimer/bin/psp/esp_psp_w_gbrvRu/O.UPF
     MD5 check sum: e057bbcf3229fb5d8c36c0c92f9568b4
     Pseudo is Ultrasoft + core correction, Zval =  6.0
     Generated using "atomic" code by A. Dal Corso  v.5.0.2 svn rev. 9415
     Using radial grid of 1095 points,  4 beta functions with: 
                l(1) =   0
                l(2) =   0
                l(3) =   1
                l(4) =   1
     Q(r) pseudized with 0 coefficients 


     atomic species   valence    mass     pseudopotential
        Ni1           10.00    58.69340     Ni( 1.00)
        O1             6.00    15.99940      O( 1.00)

     Starting magnetic structure 
     atomic species   magnetization
        Ni1          0.300
        O1           0.500

     No symmetry found



   Cartesian axes

     site n.     atom                  positions (alat units)
         1           Ni1 tau(   1) = (   0.0000000   0.0000000   7.5000000  )
         2           Ni1 tau(   2) = (   1.2580018   0.7263077   9.5543084  )
         3           Ni1 tau(   3) = (   0.0000000   1.4526154  11.6086168  )
         4           Ni1 tau(   4) = (   1.2580018   2.1789231  13.6629252  )
         5           Ni1 tau(   5) = (  -1.2580018   2.1789231   7.5000000  )
         6           Ni1 tau(   6) = (   0.0000000   2.9052308   9.5543084  )
         7           Ni1 tau(   7) = (  -1.2580018   3.6315385  11.6086168  )
         8           Ni1 tau(   8) = (  -0.0000000   4.3578462  13.6629252  )
         9           Ni1 tau(   9) = (  -2.5160037   4.3578462   7.5000000  )
        10           Ni1 tau(  10) = (  -1.2580018   5.0841539   9.5543084  )
        11           Ni1 tau(  11) = (  -2.5160037   5.8104616  11.6086168  )
        12           Ni1 tau(  12) = (  -1.2580018   6.5367693  13.6629252  )
        13           Ni1 tau(  13) = (   2.5160037   0.0000000   7.5000000  )
        14           Ni1 tau(  14) = (   3.7740055   0.7263077   9.5543084  )
        15           Ni1 tau(  15) = (   2.5160037   1.4526154  11.6086168  )
        16           Ni1 tau(  16) = (   3.7740055   2.1789231  13.6629252  )
        17           Ni1 tau(  17) = (   1.2580018   2.1789231   7.5000000  )
        18           Ni1 tau(  18) = (   2.5160037   2.9052308   9.5543084  )
        19           Ni1 tau(  19) = (   1.2580018   3.6315385  11.6086168  )
        20           Ni1 tau(  20) = (   2.5160037   4.3578462  13.6629252  )
        21           Ni1 tau(  21) = (  -0.0000000   4.3578462   7.5000000  )
        22           Ni1 tau(  22) = (   1.2580018   5.0841539   9.5543084  )
        23           Ni1 tau(  23) = (  -0.0000000   5.8104616  11.6086168  )
        24           Ni1 tau(  24) = (   1.2580018   6.5367693  13.6629252  )
        25           Ni1 tau(  25) = (   5.0320073   0.0000000   7.5000000  )
        26           Ni1 tau(  26) = (   6.2900092   0.7263077   9.5543084  )
        27           Ni1 tau(  27) = (   5.0320073   1.4526154  11.6086168  )
        28           Ni1 tau(  28) = (   6.2900092   2.1789231  13.6629252  )
        29           Ni1 tau(  29) = (   3.7740055   2.1789231   7.5000000  )
        30           Ni1 tau(  30) = (   5.0320073   2.9052308   9.5543084  )
        31           Ni1 tau(  31) = (   3.7740055   3.6315385  11.6086168  )
        32           Ni1 tau(  32) = (   5.0320073   4.3578462  13.6629252  )
        33           Ni1 tau(  33) = (   2.5160037   4.3578462   7.5000000  )
        34           Ni1 tau(  34) = (   3.7740055   5.0841539   9.5543084  )
        35           Ni1 tau(  35) = (   2.5160037   5.8104616  11.6086168  )
        36           Ni1 tau(  36) = (   3.7740055   6.5367693  13.6629252  )
        37           O1  tau(  37) = (   3.7935804   5.1277866  14.8463543  )
        38           O1  tau(  38) = (   1.3203265   5.0554212  14.8463543  )
        39           O1  tau(  39) = (   3.8363302   0.6975750  14.8463543  )
        40           O1  tau(  40) = (   6.3523338   0.6975750  14.8463543  )
        41           O1  tau(  41) = (   1.3203265   0.6975750  14.8463543  )
        42           O1  tau(  42) = (  -1.1956772   5.0554212  14.8463543  )
        43           O1  tau(  43) = (   5.0943320   2.8764981  14.8463543  )
        44           O1  tau(  44) = (   0.0623247   2.8764981  14.8463543  )

     number of k points=    10  Fermi-Dirac smearing, width (Ry)=  0.0073
                       cart. coord. in units 2pi/alat
        k(    1) = (   0.0000000   0.0000000   0.0000000), wk =   0.1111111
        k(    2) = (   0.0000000   0.0509936   0.0000000), wk =   0.2222222
        k(    3) = (   0.0441617   0.0254968   0.0000000), wk =   0.2222222
        k(    4) = (   0.0441617   0.0764904   0.0000000), wk =   0.2222222
        k(    5) = (   0.0441617  -0.0254968   0.0000000), wk =   0.2222222
        k(    6) = (   0.0000000   0.0000000   0.0000000), wk =   0.1111111
        k(    7) = (   0.0000000   0.0509936   0.0000000), wk =   0.2222222
        k(    8) = (   0.0441617   0.0254968   0.0000000), wk =   0.2222222
        k(    9) = (   0.0441617   0.0764904   0.0000000), wk =   0.2222222
        k(   10) = (   0.0441617  -0.0254968   0.0000000), wk =   0.2222222

     Dense  grid:  1102011 G-vectors     FFT dimensions: (  96,  96, 270)

     Smooth grid:   278611 G-vectors     FFT dimensions: (  64,  64, 180)

     Largest allocated arrays     est. size (Mb)     dimensions
        Kohn-Sham Wavefunctions        10.13 Mb     (    2183,  304)
        NL pseudopotentials            23.72 Mb     (    2183,  712)
        Each V/rho on FFT grid          4.78 Mb     (  156672,   2)
        Each G-vector array             0.53 Mb     (   68874)
        G-vector shells                 0.19 Mb     (   24563)
     Largest temporary arrays     est. size (Mb)     dimensions
        Auxiliary wavefunctions        40.50 Mb     (    2183, 1216)
        Each subspace H/S matrix       22.56 Mb     (    1216, 1216)
        Each <psi_i|beta_j> matrix      3.30 Mb     (     712,  304)
        Arrays for rho mixing          23.91 Mb     (  156672,   10)

     Check: negative/imaginary core charge=   -0.000010    0.000000

     Initial potential from superposition of free atoms
     Check: negative starting charge=(component1):   -0.000478
     Check: negative starting charge=(component2):   -0.000221

     starting charge  407.99095, renormalised to  408.00000

     negative rho (up, down):  4.778E-04 2.213E-04
 
     Adding external electric field

     Computed dipole along edir(3) : 
        Dipole               -0.0085 Ry au,         -0.0216 Debye
        Dipole field         -0.0000 Ry au
 
        Potential amp.        0.0012 Ry
        Total length         38.9923 bohr
 
 
     Adding external electric field

     Computed dipole along edir(3) : 
        Dipole               -0.0085 Ry au,         -0.0216 Debye
        Dipole field         -0.0000 Ry au
 
        Potential amp.        0.0012 Ry
        Total length         38.9923 bohr
 
     Starting wfc are  356 randomized atomic wfcs

     total cpu time spent up to now is       34.4 secs

     Self-consistent Calculation

     iteration #  1     ecut=    44.10 Ry     beta=0.10
     Davidson diagonalization with overlap
     ethr =  1.00E-02,  avg # of iterations =  6.8

     negative rho (up, down):  4.449E-04 2.022E-04
 
     Adding external electric field

     Computed dipole along edir(3) : 
        Dipole               -1.0619 Ry au,         -2.6992 Debye
        Dipole field         -0.0019 Ry au
 
        Potential amp.        0.1477 Ry
        Total length         38.9923 bohr
 
 
     Adding external electric field

     Computed dipole along edir(3) : 
        Dipole               -1.0619 Ry au,         -2.6992 Debye
        Dipole field         -0.0019 Ry au
 
        Potential amp.        0.1477 Ry
        Total length         38.9923 bohr
 
 
     Magnetic moment per site:
     atom:    1    charge:    3.9472    magn:    1.1278    constr:    0.0000
     atom:    2    charge:    3.9675    magn:    1.1114    constr:    0.0000
     atom:    3    charge:    3.9716    magn:    1.1078    constr:    0.0000
     atom:    4    charge:    3.9390    magn:    1.1457    constr:    0.0000
     atom:    5    charge:    3.9471    magn:    1.1279    constr:    0.0000
     atom:    6    charge:    3.9676    magn:    1.1114    constr:    0.0000
     atom:    7    charge:    3.9727    magn:    1.1064    constr:    0.0000
     atom:    8    charge:    3.9377    magn:    1.1522    constr:    0.0000
     atom:    9    charge:    3.9470    magn:    1.1279    constr:    0.0000
     atom:   10    charge:    3.9677    magn:    1.1113    constr:    0.0000
     atom:   11    charge:    3.9729    magn:    1.1062    constr:    0.0000
     atom:   12    charge:    3.9373    magn:    1.1524    constr:    0.0000
     atom:   13    charge:    3.9470    magn:    1.1279    constr:    0.0000
     atom:   14    charge:    3.9676    magn:    1.1114    constr:    0.0000
     atom:   15    charge:    3.9733    magn:    1.1055    constr:    0.0000
     atom:   16    charge:    3.9409    magn:    1.1432    constr:    0.0000
     atom:   17    charge:    3.9469    magn:    1.1280    constr:    0.0000
     atom:   18    charge:    3.9681    magn:    1.1109    constr:    0.0000
     atom:   19    charge:    3.9732    magn:    1.1055    constr:    0.0000
     atom:   20    charge:    3.9393    magn:    1.1453    constr:    0.0000
     atom:   21    charge:    3.9470    magn:    1.1279    constr:    0.0000
     atom:   22    charge:    3.9676    magn:    1.1113    constr:    0.0000
     atom:   23    charge:    3.9728    magn:    1.1063    constr:    0.0000
     atom:   24    charge:    3.9358    magn:    1.1527    constr:    0.0000
     atom:   25    charge:    3.9471    magn:    1.1279    constr:    0.0000
     atom:   26    charge:    3.9675    magn:    1.1119    constr:    0.0000
     atom:   27    charge:    3.9712    magn:    1.1083    constr:    0.0000
     atom:   28    charge:    3.9359    magn:    1.1526    constr:    0.0000
     atom:   29    charge:    3.9470    magn:    1.1280    constr:    0.0000
     atom:   30    charge:    3.9675    magn:    1.1114    constr:    0.0000
     atom:   31    charge:    3.9732    magn:    1.1055    constr:    0.0000
     atom:   32    charge:    3.9384    magn:    1.1508    constr:    0.0000
     atom:   33    charge:    3.9469    magn:    1.1280    constr:    0.0000
     atom:   34    charge:    3.9675    magn:    1.1114    constr:    0.0000
     atom:   35    charge:    3.9715    magn:    1.1080    constr:    0.0000
     atom:   36    charge:    3.9353    magn:    1.1536    constr:    0.0000
     atom:   37    charge:    2.0196    magn:    0.9469    constr:    0.0000
     atom:   38    charge:    2.0189    magn:    0.9466    constr:    0.0000
     atom:   39    charge:    2.0189    magn:    0.9465    constr:    0.0000
     atom:   40    charge:    2.0201    magn:    0.9473    constr:    0.0000
     atom:   41    charge:    2.0191    magn:    0.9466    constr:    0.0000
     atom:   42    charge:    2.0201    magn:    0.9467    constr:    0.0000
     atom:   43    charge:    2.0188    magn:    0.9463    constr:    0.0000
     atom:   44    charge:    2.0189    magn:    0.9466    constr:    0.0000

     total cpu time spent up to now is      172.8 secs

     total energy              =   -3888.37724502 Ry
     Harris-Foulkes estimate   =   -3889.09945491 Ry
     estimated scf accuracy    <      10.06639712 Ry

     total magnetization       =    46.42 Bohr mag/cell
     absolute magnetization    =    46.80 Bohr mag/cell

     iteration #  2     ecut=    44.10 Ry     beta=0.10
     Davidson diagonalization with overlap
     ethr =  2.47E-03,  avg # of iterations =  2.7

     negative rho (up, down):  4.453E-04 2.406E-04
 
     Adding external electric field

     Computed dipole along edir(3) : 
        Dipole               -0.1533 Ry au,         -0.3896 Debye
        Dipole field         -0.0003 Ry au
 
        Potential amp.        0.0213 Ry
        Total length         38.9923 bohr
 
 
     Adding external electric field

     Computed dipole along edir(3) : 
        Dipole               -0.1533 Ry au,         -0.3896 Debye
        Dipole field         -0.0003 Ry au
 
        Potential amp.        0.0213 Ry
        Total length         38.9923 bohr
 
 
     Magnetic moment per site:
     atom:    1    charge:    3.9618    magn:    1.1050    constr:    0.0000
     atom:    2    charge:    3.9615    magn:    1.1033    constr:    0.0000
     atom:    3    charge:    3.9562    magn:    1.1080    constr:    0.0000
     atom:    4    charge:    3.9470    magn:    1.1304    constr:    0.0000
     atom:    5    charge:    3.9617    magn:    1.1051    constr:    0.0000
     atom:    6    charge:    3.9615    magn:    1.1033    constr:    0.0000
     atom:    7    charge:    3.9565    magn:    1.1070    constr:    0.0000
     atom:    8    charge:    3.9447    magn:    1.1389    constr:    0.0000
     atom:    9    charge:    3.9617    magn:    1.1050    constr:    0.0000
     atom:   10    charge:    3.9616    magn:    1.1032    constr:    0.0000
     atom:   11    charge:    3.9567    magn:    1.1068    constr:    0.0000
     atom:   12    charge:    3.9444    magn:    1.1391    constr:    0.0000
     atom:   13    charge:    3.9617    magn:    1.1050    constr:    0.0000
     atom:   14    charge:    3.9615    magn:    1.1033    constr:    0.0000
     atom:   15    charge:    3.9566    magn:    1.1063    constr:    0.0000
     atom:   16    charge:    3.9486    magn:    1.1281    constr:    0.0000
     atom:   17    charge:    3.9616    magn:    1.1052    constr:    0.0000
     atom:   18    charge:    3.9618    magn:    1.1031    constr:    0.0000
     atom:   19    charge:    3.9566    magn:    1.1064    constr:    0.0000
     atom:   20    charge:    3.9473    magn:    1.1301    constr:    0.0000
     atom:   21    charge:    3.9616    magn:    1.1051    constr:    0.0000
     atom:   22    charge:    3.9615    magn:    1.1033    constr:    0.0000
     atom:   23    charge:    3.9566    magn:    1.1069    constr:    0.0000
     atom:   24    charge:    3.9437    magn:    1.1385    constr:    0.0000
     atom:   25    charge:    3.9617    magn:    1.1051    constr:    0.0000
     atom:   26    charge:    3.9620    magn:    1.1036    constr:    0.0000
     atom:   27    charge:    3.9559    magn:    1.1086    constr:    0.0000
     atom:   28    charge:    3.9438    magn:    1.1384    constr:    0.0000
     atom:   29    charge:    3.9616    magn:    1.1052    constr:    0.0000
     atom:   30    charge:    3.9614    magn:    1.1033    constr:    0.0000
     atom:   31    charge:    3.9565    magn:    1.1063    constr:    0.0000
     atom:   32    charge:    3.9452    magn:    1.1376    constr:    0.0000
     atom:   33    charge:    3.9616    magn:    1.1052    constr:    0.0000
     atom:   34    charge:    3.9614    magn:    1.1033    constr:    0.0000
     atom:   35    charge:    3.9561    magn:    1.1082    constr:    0.0000
     atom:   36    charge:    3.9434    magn:    1.1395    constr:    0.0000
     atom:   37    charge:    2.0237    magn:    0.9347    constr:    0.0000
     atom:   38    charge:    2.0229    magn:    0.9345    constr:    0.0000
     atom:   39    charge:    2.0229    magn:    0.9343    constr:    0.0000
     atom:   40    charge:    2.0240    magn:    0.9355    constr:    0.0000
     atom:   41    charge:    2.0231    magn:    0.9344    constr:    0.0000
     atom:   42    charge:    2.0240    magn:    0.9349    constr:    0.0000
     atom:   43    charge:    2.0228    magn:    0.9341    constr:    0.0000
     atom:   44    charge:    2.0229    magn:    0.9344    constr:    0.0000

     total cpu time spent up to now is      255.6 secs

     total energy              =   -3888.22948197 Ry
     Harris-Foulkes estimate   =   -3890.88689720 Ry
     estimated scf accuracy    <      65.05878215 Ry

     total magnetization       =    49.82 Bohr mag/cell
     absolute magnetization    =    50.67 Bohr mag/cell

     iteration #  3     ecut=    44.10 Ry     beta=0.10
     Davidson diagonalization with overlap
     ethr =  2.47E-03,  avg # of iterations =  1.6

     negative rho (up, down):  4.531E-04 3.045E-04
 
     Adding external electric field

     Computed dipole along edir(3) : 
        Dipole               -1.0302 Ry au,         -2.6186 Debye
        Dipole field         -0.0018 Ry au
 
        Potential amp.        0.1433 Ry
        Total length         38.9923 bohr
 
 
     Adding external electric field

     Computed dipole along edir(3) : 
        Dipole               -1.0302 Ry au,         -2.6186 Debye
        Dipole field         -0.0018 Ry au
 
        Potential amp.        0.1433 Ry
        Total length         38.9923 bohr
 
 
     Magnetic moment per site:
     atom:    1    charge:    3.9613    magn:    1.0996    constr:    0.0000
     atom:    2    charge:    3.9582    magn:    1.0994    constr:    0.0000
     atom:    3    charge:    3.9568    magn:    1.1007    constr:    0.0000
     atom:    4    charge:    3.9517    magn:    1.1216    constr:    0.0000
     atom:    5    charge:    3.9613    magn:    1.0996    constr:    0.0000
     atom:    6    charge:    3.9582    magn:    1.0994    constr:    0.0000
     atom:    7    charge:    3.9569    magn:    1.0999    constr:    0.0000
     atom:    8    charge:    3.9489    magn:    1.1312    constr:    0.0000
     atom:    9    charge:    3.9613    magn:    1.0996    constr:    0.0000
     atom:   10    charge:    3.9583    magn:    1.0994    constr:    0.0000
     atom:   11    charge:    3.9570    magn:    1.0997    constr:    0.0000
     atom:   12    charge:    3.9487    magn:    1.1313    constr:    0.0000
     atom:   13    charge:    3.9613    magn:    1.0996    constr:    0.0000
     atom:   14    charge:    3.9582    magn:    1.0994    constr:    0.0000
     atom:   15    charge:    3.9568    magn:    1.0992    constr:    0.0000
     atom:   16    charge:    3.9531    magn:    1.1193    constr:    0.0000
     atom:   17    charge:    3.9612    magn:    1.0997    constr:    0.0000
     atom:   18    charge:    3.9584    magn:    1.0993    constr:    0.0000
     atom:   19    charge:    3.9569    magn:    1.0993    constr:    0.0000
     atom:   20    charge:    3.9519    magn:    1.1213    constr:    0.0000
     atom:   21    charge:    3.9612    magn:    1.0996    constr:    0.0000
     atom:   22    charge:    3.9582    magn:    1.0994    constr:    0.0000
     atom:   23    charge:    3.9570    magn:    1.0997    constr:    0.0000
     atom:   24    charge:    3.9481    magn:    1.1304    constr:    0.0000
     atom:   25    charge:    3.9613    magn:    1.0996    constr:    0.0000
     atom:   26    charge:    3.9585    magn:    1.1000    constr:    0.0000
     atom:   27    charge:    3.9565    magn:    1.1013    constr:    0.0000
     atom:   28    charge:    3.9482    magn:    1.1303    constr:    0.0000
     atom:   29    charge:    3.9612    magn:    1.0997    constr:    0.0000
     atom:   30    charge:    3.9582    magn:    1.0994    constr:    0.0000
     atom:   31    charge:    3.9567    magn:    1.0993    constr:    0.0000
     atom:   32    charge:    3.9494    magn:    1.1299    constr:    0.0000
     atom:   33    charge:    3.9612    magn:    1.0997    constr:    0.0000
     atom:   34    charge:    3.9581    magn:    1.0994    constr:    0.0000
     atom:   35    charge:    3.9568    magn:    1.1009    constr:    0.0000
     atom:   36    charge:    3.9478    magn:    1.1314    constr:    0.0000
     atom:   37    charge:    2.0257    magn:    0.9282    constr:    0.0000
     atom:   38    charge:    2.0248    magn:    0.9281    constr:    0.0000
     atom:   39    charge:    2.0248    magn:    0.9279    constr:    0.0000
     atom:   40    charge:    2.0259    magn:    0.9292    constr:    0.0000
     atom:   41    charge:    2.0251    magn:    0.9279    constr:    0.0000
     atom:   42    charge:    2.0259    magn:    0.9286    constr:    0.0000
     atom:   43    charge:    2.0248    magn:    0.9276    constr:    0.0000
     atom:   44    charge:    2.0248    magn:    0.9280    constr:    0.0000

     total cpu time spent up to now is      332.7 secs

     total energy              =   -3888.91405781 Ry
     Harris-Foulkes estimate   =   -3889.87285357 Ry
     estimated scf accuracy    <      62.83103645 Ry

     total magnetization       =    47.32 Bohr mag/cell
     absolute magnetization    =    48.24 Bohr mag/cell

     iteration #  4     ecut=    44.10 Ry     beta=0.10
     Davidson diagonalization with overlap
     ethr =  2.47E-03,  avg # of iterations =  1.0

     negative rho (up, down):  4.527E-04 2.850E-04
 
     Adding external electric field

     Computed dipole along edir(3) : 
        Dipole               -0.9051 Ry au,         -2.3005 Debye
        Dipole field         -0.0016 Ry au
 
        Potential amp.        0.1259 Ry
        Total length         38.9923 bohr
 
 
     Adding external electric field

     Computed dipole along edir(3) : 
        Dipole               -0.9051 Ry au,         -2.3005 Debye
        Dipole field         -0.0016 Ry au
 
        Potential amp.        0.1259 Ry
        Total length         38.9923 bohr
 
 
     Magnetic moment per site:
     atom:    1    charge:    3.9749    magn:    1.0335    constr:    0.0000
     atom:    2    charge:    3.9524    magn:    1.0463    constr:    0.0000
     atom:    3    charge:    3.9652    magn:    1.0360    constr:    0.0000
     atom:    4    charge:    3.9530    magn:    1.0760    constr:    0.0000
     atom:    5    charge:    3.9750    magn:    1.0334    constr:    0.0000
     atom:    6    charge:    3.9523    magn:    1.0464    constr:    0.0000
     atom:    7    charge:    3.9656    magn:    1.0345    constr:    0.0000
     atom:    8    charge:    3.9525    magn:    1.0879    constr:    0.0000
     atom:    9    charge:    3.9751    magn:    1.0332    constr:    0.0000
     atom:   10    charge:    3.9522    magn:    1.0466    constr:    0.0000
     atom:   11    charge:    3.9656    magn:    1.0342    constr:    0.0000
     atom:   12    charge:    3.9525    magn:    1.0878    constr:    0.0000
     atom:   13    charge:    3.9751    magn:    1.0333    constr:    0.0000
     atom:   14    charge:    3.9524    magn:    1.0463    constr:    0.0000
     atom:   15    charge:    3.9651    magn:    1.0337    constr:    0.0000
     atom:   16    charge:    3.9524    magn:    1.0750    constr:    0.0000
     atom:   17    charge:    3.9752    magn:    1.0333    constr:    0.0000
     atom:   18    charge:    3.9523    magn:    1.0463    constr:    0.0000
     atom:   19    charge:    3.9652    magn:    1.0338    constr:    0.0000
     atom:   20    charge:    3.9529    magn:    1.0758    constr:    0.0000
     atom:   21    charge:    3.9751    magn:    1.0332    constr:    0.0000
     atom:   22    charge:    3.9523    magn:    1.0464    constr:    0.0000
     atom:   23    charge:    3.9656    magn:    1.0342    constr:    0.0000
     atom:   24    charge:    3.9520    magn:    1.0861    constr:    0.0000
     atom:   25    charge:    3.9750    magn:    1.0334    constr:    0.0000
     atom:   26    charge:    3.9525    magn:    1.0475    constr:    0.0000
     atom:   27    charge:    3.9650    magn:    1.0369    constr:    0.0000
     atom:   28    charge:    3.9520    magn:    1.0860    constr:    0.0000
     atom:   29    charge:    3.9752    magn:    1.0333    constr:    0.0000
     atom:   30    charge:    3.9524    magn:    1.0462    constr:    0.0000
     atom:   31    charge:    3.9651    magn:    1.0336    constr:    0.0000
     atom:   32    charge:    3.9524    magn:    1.0868    constr:    0.0000
     atom:   33    charge:    3.9752    magn:    1.0333    constr:    0.0000
     atom:   34    charge:    3.9524    magn:    1.0463    constr:    0.0000
     atom:   35    charge:    3.9652    magn:    1.0364    constr:    0.0000
     atom:   36    charge:    3.9522    magn:    1.0868    constr:    0.0000
     atom:   37    charge:    2.0337    magn:    0.8778    constr:    0.0000
     atom:   38    charge:    2.0329    magn:    0.8777    constr:    0.0000
     atom:   39    charge:    2.0329    magn:    0.8773    constr:    0.0000
     atom:   40    charge:    2.0340    magn:    0.8802    constr:    0.0000
     atom:   41    charge:    2.0332    magn:    0.8776    constr:    0.0000
     atom:   42    charge:    2.0340    magn:    0.8790    constr:    0.0000
     atom:   43    charge:    2.0328    magn:    0.8769    constr:    0.0000
     atom:   44    charge:    2.0329    magn:    0.8775    constr:    0.0000

     total cpu time spent up to now is      406.9 secs

     total energy              =   -3889.71792578 Ry
     Harris-Foulkes estimate   =   -3889.53849817 Ry
     estimated scf accuracy    <      11.13209850 Ry

     total magnetization       =    46.59 Bohr mag/cell
     absolute magnetization    =    46.93 Bohr mag/cell

     iteration #  5     ecut=    44.10 Ry     beta=0.10
     Davidson diagonalization with overlap
     ethr =  2.47E-03,  avg # of iterations =  1.0

     negative rho (up, down):  4.514E-04 2.405E-04
 
     Adding external electric field

     Computed dipole along edir(3) : 
        Dipole               -1.4109 Ry au,         -3.5862 Debye
        Dipole field         -0.0025 Ry au
 
        Potential amp.        0.1962 Ry
        Total length         38.9923 bohr
 
 
     Adding external electric field

     Computed dipole along edir(3) : 
        Dipole               -1.4109 Ry au,         -3.5862 Debye
        Dipole field         -0.0025 Ry au
 
        Potential amp.        0.1962 Ry
        Total length         38.9923 bohr
 
 
     Magnetic moment per site:
     atom:    1    charge:    3.9844    magn:    0.9274    constr:    0.0000
     atom:    2    charge:    3.9612    magn:    0.9383    constr:    0.0000
     atom:    3    charge:    3.9637    magn:    0.9345    constr:    0.0000
     atom:    4    charge:    3.9634    magn:    0.9891    constr:    0.0000
     atom:    5    charge:    3.9843    magn:    0.9274    constr:    0.0000
     atom:    6    charge:    3.9611    magn:    0.9385    constr:    0.0000
     atom:    7    charge:    3.9638    magn:    0.9320    constr:    0.0000
     atom:    8    charge:    3.9605    magn:    1.0106    constr:    0.0000
     atom:    9    charge:    3.9843    magn:    0.9273    constr:    0.0000
     atom:   10    charge:    3.9610    magn:    0.9388    constr:    0.0000
     atom:   11    charge:    3.9638    magn:    0.9316    constr:    0.0000
     atom:   12    charge:    3.9607    magn:    1.0102    constr:    0.0000
     atom:   13    charge:    3.9843    magn:    0.9273    constr:    0.0000
     atom:   14    charge:    3.9612    magn:    0.9383    constr:    0.0000
     atom:   15    charge:    3.9650    magn:    0.9291    constr:    0.0000
     atom:   16    charge:    3.9633    magn:    0.9875    constr:    0.0000
     atom:   17    charge:    3.9844    magn:    0.9275    constr:    0.0000
     atom:   18    charge:    3.9613    magn:    0.9382    constr:    0.0000
     atom:   19    charge:    3.9649    magn:    0.9294    constr:    0.0000
     atom:   20    charge:    3.9634    magn:    0.9887    constr:    0.0000
     atom:   21    charge:    3.9843    magn:    0.9273    constr:    0.0000
     atom:   22    charge:    3.9611    magn:    0.9385    constr:    0.0000
     atom:   23    charge:    3.9637    magn:    0.9316    constr:    0.0000
     atom:   24    charge:    3.9610    magn:    1.0061    constr:    0.0000
     atom:   25    charge:    3.9843    magn:    0.9274    constr:    0.0000
     atom:   26    charge:    3.9610    magn:    0.9410    constr:    0.0000
     atom:   27    charge:    3.9638    magn:    0.9356    constr:    0.0000
     atom:   28    charge:    3.9610    magn:    1.0059    constr:    0.0000
     atom:   29    charge:    3.9843    magn:    0.9275    constr:    0.0000
     atom:   30    charge:    3.9613    magn:    0.9382    constr:    0.0000
     atom:   31    charge:    3.9651    magn:    0.9288    constr:    0.0000
     atom:   32    charge:    3.9604    magn:    1.0090    constr:    0.0000
     atom:   33    charge:    3.9843    magn:    0.9275    constr:    0.0000
     atom:   34    charge:    3.9612    magn:    0.9383    constr:    0.0000
     atom:   35    charge:    3.9637    magn:    0.9351    constr:    0.0000
     atom:   36    charge:    3.9609    magn:    1.0071    constr:    0.0000
     atom:   37    charge:    2.0485    magn:    0.7878    constr:    0.0000
     atom:   38    charge:    2.0476    magn:    0.7878    constr:    0.0000
     atom:   39    charge:    2.0477    magn:    0.7871    constr:    0.0000
     atom:   40    charge:    2.0487    magn:    0.7927    constr:    0.0000
     atom:   41    charge:    2.0480    magn:    0.7877    constr:    0.0000
     atom:   42    charge:    2.0488    magn:    0.7905    constr:    0.0000
     atom:   43    charge:    2.0475    magn:    0.7862    constr:    0.0000
     atom:   44    charge:    2.0477    magn:    0.7874    constr:    0.0000

     total cpu time spent up to now is      480.9 secs

     total energy              =   -3890.41319822 Ry
     Harris-Foulkes estimate   =   -3889.92930396 Ry
     estimated scf accuracy    <       5.94242958 Ry

     total magnetization       =    45.62 Bohr mag/cell
     absolute magnetization    =    46.35 Bohr mag/cell

     iteration #  6     ecut=    44.10 Ry     beta=0.10
     Davidson diagonalization with overlap
     ethr =  1.46E-03,  avg # of iterations =  1.4

     negative rho (up, down):  4.558E-04 2.447E-04
 
     Adding external electric field

     Computed dipole along edir(3) : 
        Dipole               -1.4414 Ry au,         -3.6637 Debye
        Dipole field         -0.0026 Ry au
 
        Potential amp.        0.2005 Ry
        Total length         38.9923 bohr
 
 
     Adding external electric field

     Computed dipole along edir(3) : 
        Dipole               -1.4414 Ry au,         -3.6637 Debye
        Dipole field         -0.0026 Ry au
 
        Potential amp.        0.2005 Ry
        Total length         38.9923 bohr
 
 
     Magnetic moment per site:
     atom:    1    charge:    3.9756    magn:    0.8576    constr:    0.0000
     atom:    2    charge:    3.9635    magn:    0.8637    constr:    0.0000
     atom:    3    charge:    3.9664    magn:    0.8583    constr:    0.0000
     atom:    4    charge:    3.9672    magn:    0.9263    constr:    0.0000
     atom:    5    charge:    3.9758    magn:    0.8575    constr:    0.0000
     atom:    6    charge:    3.9638    magn:    0.8636    constr:    0.0000
     atom:    7    charge:    3.9668    magn:    0.8549    constr:    0.0000
     atom:    8    charge:    3.9613    magn:    0.9560    constr:    0.0000
     atom:    9    charge:    3.9761    magn:    0.8572    constr:    0.0000
     atom:   10    charge:    3.9647    magn:    0.8631    constr:    0.0000
     atom:   11    charge:    3.9668    magn:    0.8543    constr:    0.0000
     atom:   12    charge:    3.9608    magn:    0.9558    constr:    0.0000
     atom:   13    charge:    3.9760    magn:    0.8572    constr:    0.0000
     atom:   14    charge:    3.9634    magn:    0.8638    constr:    0.0000
     atom:   15    charge:    3.9638    magn:    0.8541    constr:    0.0000
     atom:   16    charge:    3.9715    magn:    0.9217    constr:    0.0000
     atom:   17    charge:    3.9758    magn:    0.8580    constr:    0.0000
     atom:   18    charge:    3.9633    magn:    0.8639    constr:    0.0000
     atom:   19    charge:    3.9643    magn:    0.8540    constr:    0.0000
     atom:   20    charge:    3.9679    magn:    0.9254    constr:    0.0000
     atom:   21    charge:    3.9763    magn:    0.8570    constr:    0.0000
     atom:   22    charge:    3.9638    magn:    0.8635    constr:    0.0000
     atom:   23    charge:    3.9669    magn:    0.8542    constr:    0.0000
     atom:   24    charge:    3.9602    magn:    0.9506    constr:    0.0000
     atom:   25    charge:    3.9759    magn:    0.8574    constr:    0.0000
     atom:   26    charge:    3.9642    magn:    0.8670    constr:    0.0000
     atom:   27    charge:    3.9658    magn:    0.8604    constr:    0.0000
     atom:   28    charge:    3.9603    magn:    0.9502    constr:    0.0000
     atom:   29    charge:    3.9758    magn:    0.8579    constr:    0.0000
     atom:   30    charge:    3.9633    magn:    0.8638    constr:    0.0000
     atom:   31    charge:    3.9636    magn:    0.8540    constr:    0.0000
     atom:   32    charge:    3.9627    magn:    0.9533    constr:    0.0000
     atom:   33    charge:    3.9759    magn:    0.8578    constr:    0.0000
     atom:   34    charge:    3.9634    magn:    0.8637    constr:    0.0000
     atom:   35    charge:    3.9665    magn:    0.8591    constr:    0.0000
     atom:   36    charge:    3.9588    magn:    0.9522    constr:    0.0000
     atom:   37    charge:    2.0542    magn:    0.7218    constr:    0.0000
     atom:   38    charge:    2.0534    magn:    0.7218    constr:    0.0000
     atom:   39    charge:    2.0534    magn:    0.7210    constr:    0.0000
     atom:   40    charge:    2.0542    magn:    0.7289    constr:    0.0000
     atom:   41    charge:    2.0537    magn:    0.7217    constr:    0.0000
     atom:   42    charge:    2.0545    magn:    0.7258    constr:    0.0000
     atom:   43    charge:    2.0533    magn:    0.7197    constr:    0.0000
     atom:   44    charge:    2.0535    magn:    0.7213    constr:    0.0000

     total cpu time spent up to now is      556.9 secs

     total energy              =   -3890.82257514 Ry
     Harris-Foulkes estimate   =   -3890.50417570 Ry
     estimated scf accuracy    <       3.00503036 Ry

     total magnetization       =    44.20 Bohr mag/cell
     absolute magnetization    =    45.27 Bohr mag/cell

     iteration #  7     ecut=    44.10 Ry     beta=0.10
     Davidson diagonalization with overlap
     ethr =  7.37E-04,  avg # of iterations =  1.5

     negative rho (up, down):  5.310E-04 4.039E-04
 
     Adding external electric field

     Computed dipole along edir(3) : 
        Dipole               -1.4251 Ry au,         -3.6221 Debye
        Dipole field         -0.0025 Ry au
 
        Potential amp.        0.1982 Ry
        Total length         38.9923 bohr
 
 
     Adding external electric field

     Computed dipole along edir(3) : 
        Dipole               -1.4251 Ry au,         -3.6221 Debye
        Dipole field         -0.0025 Ry au
 
        Potential amp.        0.1982 Ry
        Total length         38.9923 bohr
 
 
     Magnetic moment per site:
     atom:    1    charge:    3.9693    magn:    0.7083    constr:    0.0000
     atom:    2    charge:    3.9666    magn:    0.7135    constr:    0.0000
     atom:    3    charge:    3.9660    magn:    0.7071    constr:    0.0000
     atom:    4    charge:    3.9684    magn:    0.8018    constr:    0.0000
     atom:    5    charge:    3.9686    magn:    0.7089    constr:    0.0000
     atom:    6    charge:    3.9653    magn:    0.7147    constr:    0.0000
     atom:    7    charge:    3.9651    magn:    0.7030    constr:    0.0000
     atom:    8    charge:    3.9665    magn:    0.8413    constr:    0.0000
     atom:    9    charge:    3.9686    magn:    0.7088    constr:    0.0000
     atom:   10    charge:    3.9622    magn:    0.7171    constr:    0.0000
     atom:   11    charge:    3.9657    magn:    0.7015    constr:    0.0000
     atom:   12    charge:    3.9667    magn:    0.8402    constr:    0.0000
     atom:   13    charge:    3.9687    magn:    0.7087    constr:    0.0000
     atom:   14    charge:    3.9668    magn:    0.7135    constr:    0.0000
     atom:   15    charge:    3.9717    magn:    0.6935    constr:    0.0000
     atom:   16    charge:    3.9665    magn:    0.8016    constr:    0.0000
     atom:   17    charge:    3.9697    magn:    0.7088    constr:    0.0000
     atom:   18    charge:    3.9700    magn:    0.7109    constr:    0.0000
     atom:   19    charge:    3.9707    magn:    0.6945    constr:    0.0000
     atom:   20    charge:    3.9676    magn:    0.8017    constr:    0.0000
     atom:   21    charge:    3.9672    magn:    0.7098    constr:    0.0000
     atom:   22    charge:    3.9650    magn:    0.7149    constr:    0.0000
     atom:   23    charge:    3.9650    magn:    0.7020    constr:    0.0000
     atom:   24    charge:    3.9690    magn:    0.8298    constr:    0.0000
     atom:   25    charge:    3.9683    magn:    0.7091    constr:    0.0000
     atom:   26    charge:    3.9644    magn:    0.7214    constr:    0.0000
     atom:   27    charge:    3.9661    magn:    0.7096    constr:    0.0000
     atom:   28    charge:    3.9687    magn:    0.8293    constr:    0.0000
     atom:   29    charge:    3.9699    magn:    0.7085    constr:    0.0000
     atom:   30    charge:    3.9672    magn:    0.7131    constr:    0.0000
     atom:   31    charge:    3.9714    magn:    0.6935    constr:    0.0000
     atom:   32    charge:    3.9659    magn:    0.8394    constr:    0.0000
     atom:   33    charge:    3.9692    magn:    0.7091    constr:    0.0000
     atom:   34    charge:    3.9666    magn:    0.7136    constr:    0.0000
     atom:   35    charge:    3.9657    magn:    0.7086    constr:    0.0000
     atom:   36    charge:    3.9687    magn:    0.8302    constr:    0.0000
     atom:   37    charge:    2.0638    magn:    0.5859    constr:    0.0000
     atom:   38    charge:    2.0632    magn:    0.5863    constr:    0.0000
     atom:   39    charge:    2.0631    magn:    0.5849    constr:    0.0000
     atom:   40    charge:    2.0637    magn:    0.5983    constr:    0.0000
     atom:   41    charge:    2.0634    magn:    0.5861    constr:    0.0000
     atom:   42    charge:    2.0644    magn:    0.5930    constr:    0.0000
     atom:   43    charge:    2.0629    magn:    0.5829    constr:    0.0000
     atom:   44    charge:    2.0632    magn:    0.5855    constr:    0.0000

     total cpu time spent up to now is      633.4 secs

     total energy              =   -3891.39237083 Ry
     Harris-Foulkes estimate   =   -3890.86824070 Ry
     estimated scf accuracy    <       1.39208266 Ry

     total magnetization       =    42.53 Bohr mag/cell
     absolute magnetization    =    43.97 Bohr mag/cell

     iteration #  8     ecut=    44.10 Ry     beta=0.10
     Davidson diagonalization with overlap
     ethr =  3.41E-04,  avg # of iterations =  6.6

     negative rho (up, down):  6.942E-04 6.788E-04
 
     Adding external electric field

     Computed dipole along edir(3) : 
        Dipole               -1.2580 Ry au,         -3.1976 Debye
        Dipole field         -0.0022 Ry au
 
        Potential amp.        0.1750 Ry
        Total length         38.9923 bohr
 
 
     Adding external electric field

     Computed dipole along edir(3) : 
        Dipole               -1.2580 Ry au,         -3.1976 Debye
        Dipole field         -0.0022 Ry au
 
        Potential amp.        0.1750 Ry
        Total length         38.9923 bohr
 
 
     Magnetic moment per site:
     atom:    1    charge:    3.9641    magn:    0.5613    constr:    0.0000
     atom:    2    charge:    3.9677    magn:    0.5673    constr:    0.0000
     atom:    3    charge:    3.9694    magn:    0.5548    constr:    0.0000
     atom:    4    charge:    3.9728    magn:    0.6698    constr:    0.0000
     atom:    5    charge:    3.9643    magn:    0.5612    constr:    0.0000
     atom:    6    charge:    3.9688    magn:    0.5666    constr:    0.0000
     atom:    7    charge:    3.9696    magn:    0.5481    constr:    0.0000
     atom:    8    charge:    3.9689    magn:    0.7205    constr:    0.0000
     atom:    9    charge:    3.9645    magn:    0.5611    constr:    0.0000
     atom:   10    charge:    3.9700    magn:    0.5657    constr:    0.0000
     atom:   11    charge:    3.9692    magn:    0.5467    constr:    0.0000
     atom:   12    charge:    3.9689    magn:    0.7188    constr:    0.0000
     atom:   13    charge:    3.9645    magn:    0.5610    constr:    0.0000
     atom:   14    charge:    3.9681    magn:    0.5671    constr:    0.0000
     atom:   15    charge:    3.9690    magn:    0.5415    constr:    0.0000
     atom:   16    charge:    3.9747    magn:    0.6711    constr:    0.0000
     atom:   17    charge:    3.9625    magn:    0.5639    constr:    0.0000
     atom:   18    charge:    3.9637    magn:    0.5703    constr:    0.0000
     atom:   19    charge:    3.9695    magn:    0.5413    constr:    0.0000
     atom:   20    charge:    3.9735    magn:    0.6698    constr:    0.0000
     atom:   21    charge:    3.9653    magn:    0.5605    constr:    0.0000
     atom:   22    charge:    3.9691    magn:    0.5664    constr:    0.0000
     atom:   23    charge:    3.9692    magn:    0.5467    constr:    0.0000
     atom:   24    charge:    3.9740    magn:    0.7063    constr:    0.0000
     atom:   25    charge:    3.9646    magn:    0.5610    constr:    0.0000
     atom:   26    charge:    3.9674    magn:    0.5759    constr:    0.0000
     atom:   27    charge:    3.9704    magn:    0.5576    constr:    0.0000
     atom:   28    charge:    3.9735    magn:    0.7051    constr:    0.0000
     atom:   29    charge:    3.9618    magn:    0.5644    constr:    0.0000
     atom:   30    charge:    3.9680    magn:    0.5669    constr:    0.0000
     atom:   31    charge:    3.9696    magn:    0.5409    constr:    0.0000
     atom:   32    charge:    3.9701    magn:    0.7196    constr:    0.0000
     atom:   33    charge:    3.9627    magn:    0.5637    constr:    0.0000
     atom:   34    charge:    3.9680    magn:    0.5671    constr:    0.0000
     atom:   35    charge:    3.9697    magn:    0.5563    constr:    0.0000
     atom:   36    charge:    3.9711    magn:    0.7039    constr:    0.0000
     atom:   37    charge:    2.0681    magn:    0.4474    constr:    0.0000
     atom:   38    charge:    2.0686    magn:    0.4492    constr:    0.0000
     atom:   39    charge:    2.0685    magn:    0.4473    constr:    0.0000
     atom:   40    charge:    2.0670    magn:    0.4642    constr:    0.0000
     atom:   41    charge:    2.0673    magn:    0.4473    constr:    0.0000
     atom:   42    charge:    2.0683    magn:    0.4574    constr:    0.0000
     atom:   43    charge:    2.0682    magn:    0.4444    constr:    0.0000
     atom:   44    charge:    2.0681    magn:    0.4477    constr:    0.0000

     total cpu time spent up to now is      738.7 secs

     total energy              =   -3891.72335524 Ry
     Harris-Foulkes estimate   =   -3891.46538806 Ry
     estimated scf accuracy    <       3.04298293 Ry

     total magnetization       =    37.20 Bohr mag/cell
     absolute magnetization    =    39.39 Bohr mag/cell

     iteration #  9     ecut=    44.10 Ry     beta=0.10
     Davidson diagonalization with overlap
     ethr =  3.41E-04,  avg # of iterations =  1.2

     negative rho (up, down):  6.905E-04 6.277E-04
 
     Adding external electric field

     Computed dipole along edir(3) : 
        Dipole               -1.2033 Ry au,         -3.0584 Debye
        Dipole field         -0.0021 Ry au
 
        Potential amp.        0.1673 Ry
        Total length         38.9923 bohr
 
 
     Adding external electric field

     Computed dipole along edir(3) : 
        Dipole               -1.2033 Ry au,         -3.0584 Debye
        Dipole field         -0.0021 Ry au
 
        Potential amp.        0.1673 Ry
        Total length         38.9923 bohr
 
 
     Magnetic moment per site:
     atom:    1    charge:    3.9629    magn:    0.5472    constr:    0.0000
     atom:    2    charge:    3.9685    magn:    0.5520    constr:    0.0000
     atom:    3    charge:    3.9699    magn:    0.5393    constr:    0.0000
     atom:    4    charge:    3.9739    magn:    0.6530    constr:    0.0000
     atom:    5    charge:    3.9630    magn:    0.5472    constr:    0.0000
     atom:    6    charge:    3.9689    magn:    0.5517    constr:    0.0000
     atom:    7    charge:    3.9696    magn:    0.5325    constr:    0.0000
     atom:    8    charge:    3.9693    magn:    0.7047    constr:    0.0000
     atom:    9    charge:    3.9631    magn:    0.5471    constr:    0.0000
     atom:   10    charge:    3.9692    magn:    0.5515    constr:    0.0000
     atom:   11    charge:    3.9695    magn:    0.5309    constr:    0.0000
     atom:   12    charge:    3.9694    magn:    0.7030    constr:    0.0000
     atom:   13    charge:    3.9632    magn:    0.5470    constr:    0.0000
     atom:   14    charge:    3.9686    magn:    0.5519    constr:    0.0000
     atom:   15    charge:    3.9696    magn:    0.5254    constr:    0.0000
     atom:   16    charge:    3.9763    magn:    0.6548    constr:    0.0000
     atom:   17    charge:    3.9624    magn:    0.5491    constr:    0.0000
     atom:   18    charge:    3.9664    magn:    0.5538    constr:    0.0000
     atom:   19    charge:    3.9698    magn:    0.5254    constr:    0.0000
     atom:   20    charge:    3.9743    magn:    0.6532    constr:    0.0000
     atom:   21    charge:    3.9633    magn:    0.5469    constr:    0.0000
     atom:   22    charge:    3.9690    magn:    0.5517    constr:    0.0000
     atom:   23    charge:    3.9694    magn:    0.5311    constr:    0.0000
     atom:   24    charge:    3.9734    magn:    0.6910    constr:    0.0000
     atom:   25    charge:    3.9630    magn:    0.5471    constr:    0.0000
     atom:   26    charge:    3.9676    magn:    0.5614    constr:    0.0000
     atom:   27    charge:    3.9704    magn:    0.5424    constr:    0.0000
     atom:   28    charge:    3.9730    magn:    0.6897    constr:    0.0000
     atom:   29    charge:    3.9621    magn:    0.5493    constr:    0.0000
     atom:   30    charge:    3.9686    magn:    0.5518    constr:    0.0000
     atom:   31    charge:    3.9698    magn:    0.5249    constr:    0.0000
     atom:   32    charge:    3.9705    magn:    0.7041    constr:    0.0000
     atom:   33    charge:    3.9624    magn:    0.5489    constr:    0.0000
     atom:   34    charge:    3.9686    magn:    0.5520    constr:    0.0000
     atom:   35    charge:    3.9700    magn:    0.5409    constr:    0.0000
     atom:   36    charge:    3.9710    magn:    0.6879    constr:    0.0000
     atom:   37    charge:    2.0669    magn:    0.4316    constr:    0.0000
     atom:   38    charge:    2.0674    magn:    0.4337    constr:    0.0000
     atom:   39    charge:    2.0674    magn:    0.4317    constr:    0.0000
     atom:   40    charge:    2.0656    magn:    0.4487    constr:    0.0000
     atom:   41    charge:    2.0662    magn:    0.4315    constr:    0.0000
     atom:   42    charge:    2.0670    magn:    0.4419    constr:    0.0000
     atom:   43    charge:    2.0671    magn:    0.4287    constr:    0.0000
     atom:   44    charge:    2.0670    magn:    0.4321    constr:    0.0000

     total cpu time spent up to now is      813.6 secs

     total energy              =   -3891.82357556 Ry
     Harris-Foulkes estimate   =   -3891.81418118 Ry
     estimated scf accuracy    <       3.33426719 Ry

     total magnetization       =    28.78 Bohr mag/cell
     absolute magnetization    =    32.38 Bohr mag/cell

     iteration # 10     ecut=    44.10 Ry     beta=0.10
     Davidson diagonalization with overlap
     ethr =  3.41E-04,  avg # of iterations =  1.0

     negative rho (up, down):  6.747E-04 5.582E-04
 
     Adding external electric field

     Computed dipole along edir(3) : 
        Dipole               -1.1949 Ry au,         -3.0372 Debye
        Dipole field         -0.0021 Ry au
 
        Potential amp.        0.1662 Ry
        Total length         38.9923 bohr
 
 
     Adding external electric field

     Computed dipole along edir(3) : 
        Dipole               -1.1949 Ry au,         -3.0372 Debye
        Dipole field         -0.0021 Ry au
 
        Potential amp.        0.1662 Ry
        Total length         38.9923 bohr
 
 
     Magnetic moment per site:
     atom:    1    charge:    3.9629    magn:    0.5441    constr:    0.0000
     atom:    2    charge:    3.9686    magn:    0.5488    constr:    0.0000
     atom:    3    charge:    3.9699    magn:    0.5360    constr:    0.0000
     atom:    4    charge:    3.9737    magn:    0.6489    constr:    0.0000
     atom:    5    charge:    3.9630    magn:    0.5441    constr:    0.0000
     atom:    6    charge:    3.9690    magn:    0.5485    constr:    0.0000
     atom:    7    charge:    3.9697    magn:    0.5291    constr:    0.0000
     atom:    8    charge:    3.9694    magn:    0.7007    constr:    0.0000
     atom:    9    charge:    3.9632    magn:    0.5440    constr:    0.0000
     atom:   10    charge:    3.9694    magn:    0.5482    constr:    0.0000
     atom:   11    charge:    3.9696    magn:    0.5275    constr:    0.0000
     atom:   12    charge:    3.9694    magn:    0.6989    constr:    0.0000
     atom:   13    charge:    3.9632    magn:    0.5440    constr:    0.0000
     atom:   14    charge:    3.9687    magn:    0.5487    constr:    0.0000
     atom:   15    charge:    3.9695    magn:    0.5220    constr:    0.0000
     atom:   16    charge:    3.9762    magn:    0.6509    constr:    0.0000
     atom:   17    charge:    3.9623    magn:    0.5461    constr:    0.0000
     atom:   18    charge:    3.9667    magn:    0.5504    constr:    0.0000
     atom:   19    charge:    3.9697    magn:    0.5220    constr:    0.0000
     atom:   20    charge:    3.9742    magn:    0.6492    constr:    0.0000
     atom:   21    charge:    3.9634    magn:    0.5438    constr:    0.0000
     atom:   22    charge:    3.9691    magn:    0.5485    constr:    0.0000
     atom:   23    charge:    3.9695    magn:    0.5276    constr:    0.0000
     atom:   24    charge:    3.9735    magn:    0.6871    constr:    0.0000
     atom:   25    charge:    3.9631    magn:    0.5440    constr:    0.0000
     atom:   26    charge:    3.9677    magn:    0.5582    constr:    0.0000
     atom:   27    charge:    3.9704    magn:    0.5392    constr:    0.0000
     atom:   28    charge:    3.9731    magn:    0.6858    constr:    0.0000
     atom:   29    charge:    3.9620    magn:    0.5462    constr:    0.0000
     atom:   30    charge:    3.9687    magn:    0.5486    constr:    0.0000
     atom:   31    charge:    3.9697    magn:    0.5216    constr:    0.0000
     atom:   32    charge:    3.9706    magn:    0.7001    constr:    0.0000
     atom:   33    charge:    3.9623    magn:    0.5459    constr:    0.0000
     atom:   34    charge:    3.9687    magn:    0.5487    constr:    0.0000
     atom:   35    charge:    3.9701    magn:    0.5376    constr:    0.0000
     atom:   36    charge:    3.9712    magn:    0.6838    constr:    0.0000
     atom:   37    charge:    2.0664    magn:    0.4278    constr:    0.0000
     atom:   38    charge:    2.0669    magn:    0.4300    constr:    0.0000
     atom:   39    charge:    2.0668    magn:    0.4281    constr:    0.0000
     atom:   40    charge:    2.0652    magn:    0.4451    constr:    0.0000
     atom:   41    charge:    2.0657    magn:    0.4278    constr:    0.0000
     atom:   42    charge:    2.0665    magn:    0.4383    constr:    0.0000
     atom:   43    charge:    2.0665    magn:    0.4250    constr:    0.0000
     atom:   44    charge:    2.0665    magn:    0.4285    constr:    0.0000

     total cpu time spent up to now is      888.0 secs

     total energy              =   -3891.83081095 Ry
     Harris-Foulkes estimate   =   -3891.82768437 Ry
     estimated scf accuracy    <       2.32290422 Ry

     total magnetization       =    28.50 Bohr mag/cell
     absolute magnetization    =    32.26 Bohr mag/cell

     iteration # 11     ecut=    44.10 Ry     beta=0.10
     Davidson diagonalization with overlap
     ethr =  3.41E-04,  avg # of iterations =  1.0

     negative rho (up, down):  7.153E-04 7.057E-04
 
     Adding external electric field

     Computed dipole along edir(3) : 
        Dipole               -1.1505 Ry au,         -2.9242 Debye
        Dipole field         -0.0021 Ry au
 
        Potential amp.        0.1600 Ry
        Total length         38.9923 bohr
 
 
     Adding external electric field

     Computed dipole along edir(3) : 
        Dipole               -1.1505 Ry au,         -2.9242 Debye
        Dipole field         -0.0021 Ry au
 
        Potential amp.        0.1600 Ry
        Total length         38.9923 bohr
 
 
     Magnetic moment per site:
     atom:    1    charge:    3.9710    magn:    0.4513    constr:    0.0000
     atom:    2    charge:    3.9713    magn:    0.4544    constr:    0.0000
     atom:    3    charge:    3.9698    magn:    0.4411    constr:    0.0000
     atom:    4    charge:    3.9700    magn:    0.5271    constr:    0.0000
     atom:    5    charge:    3.9703    magn:    0.4519    constr:    0.0000
     atom:    6    charge:    3.9708    magn:    0.4548    constr:    0.0000
     atom:    7    charge:    3.9687    magn:    0.4316    constr:    0.0000
     atom:    8    charge:    3.9682    magn:    0.5805    constr:    0.0000
     atom:    9    charge:    3.9704    magn:    0.4520    constr:    0.0000
     atom:   10    charge:    3.9703    magn:    0.4548    constr:    0.0000
     atom:   11    charge:    3.9690    magn:    0.4294    constr:    0.0000
     atom:   12    charge:    3.9692    magn:    0.5785    constr:    0.0000
     atom:   13    charge:    3.9707    magn:    0.4518    constr:    0.0000
     atom:   14    charge:    3.9707    magn:    0.4551    constr:    0.0000
     atom:   15    charge:    3.9705    magn:    0.4219    constr:    0.0000
     atom:   16    charge:    3.9732    magn:    0.5381    constr:    0.0000
     atom:   17    charge:    3.9709    magn:    0.4535    constr:    0.0000
     atom:   18    charge:    3.9667    magn:    0.4578    constr:    0.0000
     atom:   19    charge:    3.9700    magn:    0.4226    constr:    0.0000
     atom:   20    charge:    3.9707    magn:    0.5286    constr:    0.0000
     atom:   21    charge:    3.9696    magn:    0.4525    constr:    0.0000
     atom:   22    charge:    3.9705    magn:    0.4550    constr:    0.0000
     atom:   23    charge:    3.9681    magn:    0.4299    constr:    0.0000
     atom:   24    charge:    3.9717    magn:    0.5740    constr:    0.0000
     atom:   25    charge:    3.9702    magn:    0.4519    constr:    0.0000
     atom:   26    charge:    3.9696    magn:    0.4668    constr:    0.0000
     atom:   27    charge:    3.9710    magn:    0.4452    constr:    0.0000
     atom:   28    charge:    3.9715    magn:    0.5715    constr:    0.0000
     atom:   29    charge:    3.9699    magn:    0.4541    constr:    0.0000
     atom:   30    charge:    3.9706    magn:    0.4550    constr:    0.0000
     atom:   31    charge:    3.9713    magn:    0.4213    constr:    0.0000
     atom:   32    charge:    3.9701    magn:    0.5844    constr:    0.0000
     atom:   33    charge:    3.9707    magn:    0.4536    constr:    0.0000
     atom:   34    charge:    3.9710    magn:    0.4547    constr:    0.0000
     atom:   35    charge:    3.9697    magn:    0.4432    constr:    0.0000
     atom:   36    charge:    3.9699    magn:    0.5631    constr:    0.0000
     atom:   37    charge:    2.0523    magn:    0.3165    constr:    0.0000
     atom:   38    charge:    2.0531    magn:    0.3225    constr:    0.0000
     atom:   39    charge:    2.0529    magn:    0.3197    constr:    0.0000
     atom:   40    charge:    2.0533    magn:    0.3369    constr:    0.0000
     atom:   41    charge:    2.0520    magn:    0.3167    constr:    0.0000
     atom:   42    charge:    2.0524    magn:    0.3296    constr:    0.0000
     atom:   43    charge:    2.0524    magn:    0.3157    constr:    0.0000
     atom:   44    charge:    2.0528    magn:    0.3203    constr:    0.0000

     total cpu time spent up to now is      962.4 secs

     total energy              =   -3891.87250491 Ry
     Harris-Foulkes estimate   =   -3891.83117320 Ry
     estimated scf accuracy    <       2.14469648 Ry

     total magnetization       =    28.43 Bohr mag/cell
     absolute magnetization    =    32.23 Bohr mag/cell

     iteration # 12     ecut=    44.10 Ry     beta=0.10
     Davidson diagonalization with overlap
     ethr =  3.41E-04,  avg # of iterations =  1.0

     negative rho (up, down):  6.641E-04 6.324E-04
 
     Adding external electric field

     Computed dipole along edir(3) : 
        Dipole               -1.2829 Ry au,         -3.2608 Debye
        Dipole field         -0.0023 Ry au
 
        Potential amp.        0.1784 Ry
        Total length         38.9923 bohr
 
 
     Adding external electric field

     Computed dipole along edir(3) : 
        Dipole               -1.2829 Ry au,         -3.2608 Debye
        Dipole field         -0.0023 Ry au
 
        Potential amp.        0.1784 Ry
        Total length         38.9923 bohr
 
 
     Magnetic moment per site:
     atom:    1    charge:    3.9676    magn:    0.4478    constr:    0.0000
     atom:    2    charge:    3.9695    magn:    0.4496    constr:    0.0000
     atom:    3    charge:    3.9697    magn:    0.4358    constr:    0.0000
     atom:    4    charge:    3.9682    magn:    0.5089    constr:    0.0000
     atom:    5    charge:    3.9700    magn:    0.4463    constr:    0.0000
     atom:    6    charge:    3.9712    magn:    0.4486    constr:    0.0000
     atom:    7    charge:    3.9689    magn:    0.4253    constr:    0.0000
     atom:    8    charge:    3.9642    magn:    0.5606    constr:    0.0000
     atom:    9    charge:    3.9695    magn:    0.4470    constr:    0.0000
     atom:   10    charge:    3.9702    magn:    0.4490    constr:    0.0000
     atom:   11    charge:    3.9685    magn:    0.4235    constr:    0.0000
     atom:   12    charge:    3.9638    magn:    0.5580    constr:    0.0000
     atom:   13    charge:    3.9688    magn:    0.4474    constr:    0.0000
     atom:   14    charge:    3.9709    magn:    0.4492    constr:    0.0000
     atom:   15    charge:    3.9679    magn:    0.4169    constr:    0.0000
     atom:   16    charge:    3.9679    magn:    0.5259    constr:    0.0000
     atom:   17    charge:    3.9709    magn:    0.4479    constr:    0.0000
     atom:   18    charge:    3.9685    magn:    0.4517    constr:    0.0000
     atom:   19    charge:    3.9694    magn:    0.4166    constr:    0.0000
     atom:   20    charge:    3.9678    magn:    0.5113    constr:    0.0000
     atom:   21    charge:    3.9705    magn:    0.4462    constr:    0.0000
     atom:   22    charge:    3.9718    magn:    0.4484    constr:    0.0000
     atom:   23    charge:    3.9692    magn:    0.4231    constr:    0.0000
     atom:   24    charge:    3.9665    magn:    0.5564    constr:    0.0000
     atom:   25    charge:    3.9700    magn:    0.4462    constr:    0.0000
     atom:   26    charge:    3.9680    magn:    0.4625    constr:    0.0000
     atom:   27    charge:    3.9691    magn:    0.4411    constr:    0.0000
     atom:   28    charge:    3.9664    magn:    0.5536    constr:    0.0000
     atom:   29    charge:    3.9727    magn:    0.4467    constr:    0.0000
     atom:   30    charge:    3.9705    magn:    0.4494    constr:    0.0000
     atom:   31    charge:    3.9671    magn:    0.4170    constr:    0.0000
     atom:   32    charge:    3.9637    magn:    0.5669    constr:    0.0000
     atom:   33    charge:    3.9714    magn:    0.4476    constr:    0.0000
     atom:   34    charge:    3.9697    magn:    0.4497    constr:    0.0000
     atom:   35    charge:    3.9697    magn:    0.4378    constr:    0.0000
     atom:   36    charge:    3.9651    magn:    0.5422    constr:    0.0000
     atom:   37    charge:    2.0494    magn:    0.3013    constr:    0.0000
     atom:   38    charge:    2.0503    magn:    0.3088    constr:    0.0000
     atom:   39    charge:    2.0501    magn:    0.3056    constr:    0.0000
     atom:   40    charge:    2.0496    magn:    0.3217    constr:    0.0000
     atom:   41    charge:    2.0488    magn:    0.3014    constr:    0.0000
     atom:   42    charge:    2.0504    magn:    0.3154    constr:    0.0000
     atom:   43    charge:    2.0495    magn:    0.3015    constr:    0.0000
     atom:   44    charge:    2.0499    magn:    0.3064    constr:    0.0000

     total cpu time spent up to now is     1036.8 secs

     total energy              =   -3891.92220575 Ry
     Harris-Foulkes estimate   =   -3891.92110639 Ry
     estimated scf accuracy    <       0.50791035 Ry

     total magnetization       =    25.32 Bohr mag/cell
     absolute magnetization    =    29.85 Bohr mag/cell

     iteration # 13     ecut=    44.10 Ry     beta=0.10
     Davidson diagonalization with overlap
     ethr =  1.24E-04,  avg # of iterations =  2.9

     negative rho (up, down):  6.502E-04 6.875E-04
 
     Adding external electric field

     Computed dipole along edir(3) : 
        Dipole               -1.2163 Ry au,         -3.0916 Debye
        Dipole field         -0.0022 Ry au
 
        Potential amp.        0.1692 Ry
        Total length         38.9923 bohr
 
 
     Adding external electric field

     Computed dipole along edir(3) : 
        Dipole               -1.2163 Ry au,         -3.0916 Debye
        Dipole field         -0.0022 Ry au
 
        Potential amp.        0.1692 Ry
        Total length         38.9923 bohr
 
 
     Magnetic moment per site:
     atom:    1    charge:    3.9721    magn:    0.3919    constr:    0.0000
     atom:    2    charge:    3.9729    magn:    0.3909    constr:    0.0000
     atom:    3    charge:    3.9692    magn:    0.3788    constr:    0.0000
     atom:    4    charge:    3.9631    magn:    0.4152    constr:    0.0000
     atom:    5    charge:    3.9709    magn:    0.3928    constr:    0.0000
     atom:    6    charge:    3.9719    magn:    0.3916    constr:    0.0000
     atom:    7    charge:    3.9683    magn:    0.3658    constr:    0.0000
     atom:    8    charge:    3.9608    magn:    0.4639    constr:    0.0000
     atom:    9    charge:    3.9710    magn:    0.3932    constr:    0.0000
     atom:   10    charge:    3.9717    magn:    0.3914    constr:    0.0000
     atom:   11    charge:    3.9688    magn:    0.3631    constr:    0.0000
     atom:   12    charge:    3.9609    magn:    0.4610    constr:    0.0000
     atom:   13    charge:    3.9710    magn:    0.3932    constr:    0.0000
     atom:   14    charge:    3.9723    magn:    0.3920    constr:    0.0000
     atom:   15    charge:    3.9677    magn:    0.3562    constr:    0.0000
     atom:   16    charge:    3.9651    magn:    0.4416    constr:    0.0000
     atom:   17    charge:    3.9711    magn:    0.3951    constr:    0.0000
     atom:   18    charge:    3.9724    magn:    0.3936    constr:    0.0000
     atom:   19    charge:    3.9676    magn:    0.3570    constr:    0.0000
     atom:   20    charge:    3.9629    magn:    0.4190    constr:    0.0000
     atom:   21    charge:    3.9699    magn:    0.3939    constr:    0.0000
     atom:   22    charge:    3.9717    magn:    0.3919    constr:    0.0000
     atom:   23    charge:    3.9683    magn:    0.3635    constr:    0.0000
     atom:   24    charge:    3.9627    magn:    0.4670    constr:    0.0000
     atom:   25    charge:    3.9706    magn:    0.3928    constr:    0.0000
     atom:   26    charge:    3.9715    magn:    0.4058    constr:    0.0000
     atom:   27    charge:    3.9690    magn:    0.3850    constr:    0.0000
     atom:   28    charge:    3.9628    magn:    0.4636    constr:    0.0000
     atom:   29    charge:    3.9701    magn:    0.3958    constr:    0.0000
     atom:   30    charge:    3.9724    magn:    0.3919    constr:    0.0000
     atom:   31    charge:    3.9672    magn:    0.3563    constr:    0.0000
     atom:   32    charge:    3.9613    magn:    0.4749    constr:    0.0000
     atom:   33    charge:    3.9707    magn:    0.3956    constr:    0.0000
     atom:   34    charge:    3.9729    magn:    0.3912    constr:    0.0000
     atom:   35    charge:    3.9692    magn:    0.3811    constr:    0.0000
     atom:   36    charge:    3.9622    magn:    0.4456    constr:    0.0000
     atom:   37    charge:    2.0347    magn:    0.2209    constr:    0.0000
     atom:   38    charge:    2.0348    magn:    0.2319    constr:    0.0000
     atom:   39    charge:    2.0349    magn:    0.2281    constr:    0.0000
     atom:   40    charge:    2.0357    magn:    0.2432    constr:    0.0000
     atom:   41    charge:    2.0343    magn:    0.2211    constr:    0.0000
     atom:   42    charge:    2.0358    magn:    0.2373    constr:    0.0000
     atom:   43    charge:    2.0346    magn:    0.2235    constr:    0.0000
     atom:   44    charge:    2.0346    magn:    0.2290    constr:    0.0000

     total cpu time spent up to now is     1119.6 secs

     total energy              =   -3891.92184776 Ry
     Harris-Foulkes estimate   =   -3891.94179394 Ry
     estimated scf accuracy    <       1.73249987 Ry

     total magnetization       =    22.90 Bohr mag/cell
     absolute magnetization    =    27.41 Bohr mag/cell

     iteration # 14     ecut=    44.10 Ry     beta=0.10
     Davidson diagonalization with overlap
     ethr =  1.24E-04,  avg # of iterations =  1.0

     negative rho (up, down):  6.381E-04 6.765E-04
 
     Adding external electric field

     Computed dipole along edir(3) : 
        Dipole               -1.2022 Ry au,         -3.0558 Debye
        Dipole field         -0.0021 Ry au
 
        Potential amp.        0.1672 Ry
        Total length         38.9923 bohr
 
 
     Adding external electric field

     Computed dipole along edir(3) : 
        Dipole               -1.2022 Ry au,         -3.0558 Debye
        Dipole field         -0.0021 Ry au
 
        Potential amp.        0.1672 Ry
        Total length         38.9923 bohr
 
 
     Magnetic moment per site:
     atom:    1    charge:    3.9710    magn:    0.3738    constr:    0.0000
     atom:    2    charge:    3.9728    magn:    0.3703    constr:    0.0000
     atom:    3    charge:    3.9689    magn:    0.3585    constr:    0.0000
     atom:    4    charge:    3.9620    magn:    0.3832    constr:    0.0000
     atom:    5    charge:    3.9715    magn:    0.3736    constr:    0.0000
     atom:    6    charge:    3.9733    magn:    0.3702    constr:    0.0000
     atom:    7    charge:    3.9682    magn:    0.3445    constr:    0.0000
     atom:    8    charge:    3.9606    magn:    0.4312    constr:    0.0000
     atom:    9    charge:    3.9710    magn:    0.3745    constr:    0.0000
     atom:   10    charge:    3.9725    magn:    0.3704    constr:    0.0000
     atom:   11    charge:    3.9680    magn:    0.3420    constr:    0.0000
     atom:   12    charge:    3.9607    magn:    0.4281    constr:    0.0000
     atom:   13    charge:    3.9711    magn:    0.3744    constr:    0.0000
     atom:   14    charge:    3.9730    magn:    0.3710    constr:    0.0000
     atom:   15    charge:    3.9690    magn:    0.3340    constr:    0.0000
     atom:   16    charge:    3.9647    magn:    0.4119    constr:    0.0000
     atom:   17    charge:    3.9722    magn:    0.3757    constr:    0.0000
     atom:   18    charge:    3.9709    magn:    0.3739    constr:    0.0000
     atom:   19    charge:    3.9690    magn:    0.3349    constr:    0.0000
     atom:   20    charge:    3.9622    magn:    0.3872    constr:    0.0000
     atom:   21    charge:    3.9714    magn:    0.3743    constr:    0.0000
     atom:   22    charge:    3.9733    magn:    0.3704    constr:    0.0000
     atom:   23    charge:    3.9679    magn:    0.3423    constr:    0.0000
     atom:   24    charge:    3.9633    magn:    0.4364    constr:    0.0000
     atom:   25    charge:    3.9716    magn:    0.3734    constr:    0.0000
     atom:   26    charge:    3.9719    magn:    0.3856    constr:    0.0000
     atom:   27    charge:    3.9698    magn:    0.3645    constr:    0.0000
     atom:   28    charge:    3.9631    magn:    0.4329    constr:    0.0000
     atom:   29    charge:    3.9720    magn:    0.3759    constr:    0.0000
     atom:   30    charge:    3.9730    magn:    0.3710    constr:    0.0000
     atom:   31    charge:    3.9694    magn:    0.3337    constr:    0.0000
     atom:   32    charge:    3.9613    magn:    0.4432    constr:    0.0000
     atom:   33    charge:    3.9724    magn:    0.3758    constr:    0.0000
     atom:   34    charge:    3.9728    magn:    0.3707    constr:    0.0000
     atom:   35    charge:    3.9689    magn:    0.3608    constr:    0.0000
     atom:   36    charge:    3.9619    magn:    0.4133    constr:    0.0000
     atom:   37    charge:    2.0321    magn:    0.1934    constr:    0.0000
     atom:   38    charge:    2.0321    magn:    0.2055    constr:    0.0000
     atom:   39    charge:    2.0321    magn:    0.2013    constr:    0.0000
     atom:   40    charge:    2.0338    magn:    0.2166    constr:    0.0000
     atom:   41    charge:    2.0317    magn:    0.1937    constr:    0.0000
     atom:   42    charge:    2.0333    magn:    0.2106    constr:    0.0000
     atom:   43    charge:    2.0318    magn:    0.1966    constr:    0.0000
     atom:   44    charge:    2.0319    magn:    0.2024    constr:    0.0000

     total cpu time spent up to now is     1193.6 secs

     total energy              =   -3891.94926951 Ry
     Harris-Foulkes estimate   =   -3891.95078248 Ry
     estimated scf accuracy    <       0.36147898 Ry

     total magnetization       =    21.40 Bohr mag/cell
     absolute magnetization    =    26.11 Bohr mag/cell

     iteration # 15     ecut=    44.10 Ry     beta=0.10
     Davidson diagonalization with overlap
     ethr =  8.86E-05,  avg # of iterations =  1.4

     negative rho (up, down):  5.958E-04 6.310E-04
 
     Adding external electric field

     Computed dipole along edir(3) : 
        Dipole               -1.2047 Ry au,         -3.0621 Debye
        Dipole field         -0.0021 Ry au
 
        Potential amp.        0.1675 Ry
        Total length         38.9923 bohr
 
 
     Adding external electric field

     Computed dipole along edir(3) : 
        Dipole               -1.2047 Ry au,         -3.0621 Debye
        Dipole field         -0.0021 Ry au
 
        Potential amp.        0.1675 Ry
        Total length         38.9923 bohr
 
 
     Magnetic moment per site:
     atom:    1    charge:    3.9726    magn:    0.3672    constr:    0.0000
     atom:    2    charge:    3.9726    magn:    0.3625    constr:    0.0000
     atom:    3    charge:    3.9695    magn:    0.3509    constr:    0.0000
     atom:    4    charge:    3.9616    magn:    0.3563    constr:    0.0000
     atom:    5    charge:    3.9722    magn:    0.3676    constr:    0.0000
     atom:    6    charge:    3.9722    magn:    0.3629    constr:    0.0000
     atom:    7    charge:    3.9685    magn:    0.3361    constr:    0.0000
     atom:    8    charge:    3.9598    magn:    0.4021    constr:    0.0000
     atom:    9    charge:    3.9721    magn:    0.3684    constr:    0.0000
     atom:   10    charge:    3.9720    magn:    0.3628    constr:    0.0000
     atom:   11    charge:    3.9688    magn:    0.3333    constr:    0.0000
     atom:   12    charge:    3.9595    magn:    0.3988    constr:    0.0000
     atom:   13    charge:    3.9720    magn:    0.3685    constr:    0.0000
     atom:   14    charge:    3.9721    magn:    0.3638    constr:    0.0000
     atom:   15    charge:    3.9686    magn:    0.3259    constr:    0.0000
     atom:   16    charge:    3.9634    magn:    0.3890    constr:    0.0000
     atom:   17    charge:    3.9730    magn:    0.3696    constr:    0.0000
     atom:   18    charge:    3.9711    magn:    0.3664    constr:    0.0000
     atom:   19    charge:    3.9688    magn:    0.3269    constr:    0.0000
     atom:   20    charge:    3.9615    magn:    0.3609    constr:    0.0000
     atom:   21    charge:    3.9716    magn:    0.3688    constr:    0.0000
     atom:   22    charge:    3.9722    magn:    0.3632    constr:    0.0000
     atom:   23    charge:    3.9685    magn:    0.3338    constr:    0.0000
     atom:   24    charge:    3.9619    magn:    0.4103    constr:    0.0000
     atom:   25    charge:    3.9719    magn:    0.3676    constr:    0.0000
     atom:   26    charge:    3.9713    magn:    0.3788    constr:    0.0000
     atom:   27    charge:    3.9692    magn:    0.3580    constr:    0.0000
     atom:   28    charge:    3.9616    magn:    0.4067    constr:    0.0000
     atom:   29    charge:    3.9731    magn:    0.3697    constr:    0.0000
     atom:   30    charge:    3.9720    magn:    0.3639    constr:    0.0000
     atom:   31    charge:    3.9685    magn:    0.3259    constr:    0.0000
     atom:   32    charge:    3.9597    magn:    0.4157    constr:    0.0000
     atom:   33    charge:    3.9729    magn:    0.3699    constr:    0.0000
     atom:   34    charge:    3.9724    magn:    0.3630    constr:    0.0000
     atom:   35    charge:    3.9693    magn:    0.3534    constr:    0.0000
     atom:   36    charge:    3.9608    magn:    0.3846    constr:    0.0000
     atom:   37    charge:    2.0283    magn:    0.1740    constr:    0.0000
     atom:   38    charge:    2.0281    magn:    0.1875    constr:    0.0000
     atom:   39    charge:    2.0280    magn:    0.1829    constr:    0.0000
     atom:   40    charge:    2.0300    magn:    0.1976    constr:    0.0000
     atom:   41    charge:    2.0281    magn:    0.1746    constr:    0.0000
     atom:   42    charge:    2.0297    magn:    0.1922    constr:    0.0000
     atom:   43    charge:    2.0277    magn:    0.1782    constr:    0.0000
     atom:   44    charge:    2.0280    magn:    0.1844    constr:    0.0000

     total cpu time spent up to now is     1269.5 secs

     total energy              =   -3891.95834797 Ry
     Harris-Foulkes estimate   =   -3891.95383200 Ry
     estimated scf accuracy    <       0.09750608 Ry

     total magnetization       =    21.06 Bohr mag/cell
     absolute magnetization    =    25.80 Bohr mag/cell

     iteration # 16     ecut=    44.10 Ry     beta=0.10
     Davidson diagonalization with overlap
     c_bands:  1 eigenvalues not converged
     ethr =  2.39E-05,  avg # of iterations =  9.7

     negative rho (up, down):  5.582E-04 5.738E-04
 
     Adding external electric field

     Computed dipole along edir(3) : 
        Dipole               -1.2113 Ry au,         -3.0787 Debye
        Dipole field         -0.0022 Ry au
 
        Potential amp.        0.1685 Ry
        Total length         38.9923 bohr
 
 
     Adding external electric field

     Computed dipole along edir(3) : 
        Dipole               -1.2113 Ry au,         -3.0787 Debye
        Dipole field         -0.0022 Ry au
 
        Potential amp.        0.1685 Ry
        Total length         38.9923 bohr
 
 
     Magnetic moment per site:
     atom:    1    charge:    3.9721    magn:    0.3697    constr:    0.0000
     atom:    2    charge:    3.9709    magn:    0.3641    constr:    0.0000
     atom:    3    charge:    3.9693    magn:    0.3520    constr:    0.0000
     atom:    4    charge:    3.9615    magn:    0.3429    constr:    0.0000
     atom:    5    charge:    3.9724    magn:    0.3696    constr:    0.0000
     atom:    6    charge:    3.9711    magn:    0.3641    constr:    0.0000
     atom:    7    charge:    3.9691    magn:    0.3363    constr:    0.0000
[...]
     0.7079   0.7604   0.7604   0.8235   0.8238   0.8262   0.8275   0.8571
     0.8592   0.8616   0.8669   0.8701   0.8720   0.9852   0.9891   1.0005
     1.0084   1.0095   1.0116   1.0235   1.0271   1.0301   1.1407   1.1451
     1.1472   1.1731   1.1735   1.1791   1.1907   1.1984   1.2002   1.2653
     1.2668   1.3479   1.5094   1.5109   1.5553   1.5559   1.6019   1.6156
     1.6158   1.6407   1.6528   1.6554   1.6729   1.6744   1.6954   1.7001
     1.7114   1.7157   1.7159   1.8480   1.9210   1.9234   1.9602   1.9621
     1.9853   1.9864   1.9903   1.9967   2.0057   2.0141   2.0143   2.0187
     2.0196   2.0696   2.1120   2.1129   2.1150   2.1304   2.1309   2.1441
     2.1669   2.1673   2.2136   2.2293   2.2294   2.2295   2.2311   2.2395
     2.2396   2.2758   2.2759   2.3206   2.3213   2.3562   2.3588   2.3886
     2.3887   2.3959   2.4011   2.4014   2.4028   2.4447   2.4468   2.7130
     2.7515   2.7736   2.7737   2.7763   2.7782   2.8198   2.8707   2.8979
     2.8990   2.9885   2.9903   3.0645   3.9067   4.4923   4.4974   4.5005
     4.5528   4.5558   6.1570   6.7039   6.9710   6.9751   7.0193   7.0535
     7.0570   7.1129   7.1131   7.4271   7.4272   7.5639   7.7741   7.8796
     8.1294   8.2194   8.2226   8.8026   8.9147   8.9166   9.0740   9.0751
     9.5274   9.6776   9.6783   9.7065   9.7184   9.7196   9.9874  10.0646
    10.0651  10.3582  10.6642  10.6644  10.6753  10.6955  10.6959  10.9254
    11.3516  11.4086  11.4158  11.4287  11.4343  11.4731  11.5643  11.5644
    11.6327  11.6414  11.6459  11.6648  11.6678  11.7406  12.1015  12.2873
    12.3826  12.4832  12.5468  12.5508  12.5930  12.6094  12.6149  12.8604
    12.8653  12.8702  12.9250  12.9559  12.9583  13.3509  13.5439  13.5543

          k = 0.0000 0.0510 0.0000 ( 34862 PWs)   bands (ev):

   -18.0047 -17.6047 -17.3480 -17.2606 -16.8559 -16.8231 -16.7379 -16.5534
    -5.8055  -5.1932  -4.9119  -4.8677  -4.8169  -4.7507  -4.5599  -4.4931
    -4.3326  -3.9905  -3.9545  -3.8030  -3.7002  -3.6734  -3.5682  -3.2253
    -3.2106  -3.1462  -3.1374  -3.0485  -2.9573  -2.8434  -2.7838  -2.7788
    -2.7165  -2.6450  -2.6250  -2.4986  -2.3651  -2.2674  -2.1387  -2.0654
    -2.0117  -2.0108  -1.9325  -1.9300  -1.6928  -1.6013  -1.5722  -1.5087
    -1.4127  -1.3794  -1.3628  -1.1952  -1.1619  -1.1581  -1.1082  -1.0998
    -1.0880  -1.0761  -1.0093  -0.9391  -0.9094  -0.8596  -0.8541  -0.8376
    -0.8366  -0.7341  -0.6974  -0.6530  -0.6392  -0.5859  -0.5831  -0.5469
    -0.5360  -0.4930  -0.4659  -0.4643  -0.4217  -0.4122  -0.3609  -0.3336
    -0.3100  -0.2773  -0.2750  -0.2491  -0.2228  -0.1734  -0.1596  -0.1334
    -0.0659  -0.0564  -0.0250  -0.0225   0.0341   0.0514   0.0612   0.1047
     0.1241   0.1284   0.1594   0.1790   0.2163   0.2270   0.2640   0.3030
     0.3123   0.3362   0.3862   0.4017   0.4784   0.5015   0.5148   0.5448
     0.5497   0.5546   0.6000   0.6097   0.6124   0.6316   0.6434   0.6766
     0.7177   0.7203   0.7555   0.7741   0.7896   0.7980   0.8489   0.8521
     0.8613   0.8679   0.8732   0.8854   0.8927   0.9398   0.9490   0.9605
     0.9770   0.9904   1.0078   1.0187   1.0353   1.0826   1.1075   1.1505
     1.1642   1.1707   1.1978   1.2457   1.2470   1.2733   1.2829   1.2884
     1.2925   1.3077   1.3500   1.4247   1.4281   1.4827   1.4923   1.5069
     1.5212   1.5308   1.5381   1.5700   1.5844   1.6104   1.6216   1.6442
     1.6551   1.6945   1.7146   1.7247   1.7665   1.7731   1.8130   1.8433
     1.8487   1.8917   1.9283   1.9512   1.9790   2.0132   2.0174   2.0778
     2.0857   2.1088   2.1115   2.1343   2.1487   2.1777   2.1903   2.2391
     2.2508   2.2668   2.2906   2.3066   2.3108   2.3521   2.3624   2.3798
     2.4084   2.4160   2.4327   2.4534   2.4545   2.4856   2.4988   2.5132
     2.5159   2.5275   2.5356   2.6355   2.6494   2.6633   2.6722   2.7293
     2.8185   2.8323   2.8491   2.9181   2.9296   3.0407   3.0529   3.0779
     3.2913   3.5145   3.6032   3.6517   3.6878   3.9836   4.2047   4.7545
     4.7913   5.0086   5.2842   5.4148   5.5402   5.6503   5.6753   6.1589
     6.3652   6.8920   7.0939   7.2447   7.3098   7.7741   8.1394   8.1434
     8.2162   8.3091   8.3816   8.4935   8.7981   8.9940   9.1932   9.2406
     9.4441   9.4688   9.5046   9.5259   9.5842   9.6687   9.7685  10.0595
    10.3021  10.4067  10.4705  10.5331  10.5458  10.5619  10.7600  10.7876
    10.8513  11.0559  11.1562  11.1617  11.4552  11.6372  11.7000  11.7406
    11.8216  11.9608  12.0324  12.0966  12.5320  12.5430  12.5720  12.5853
    12.6570  12.6728  12.7755  12.8906  12.9198  13.0595  13.1457  13.2310
    13.2791  13.4583  13.7105  13.7325  13.7677  13.7825  13.8730  13.8921

          k = 0.0442 0.0255 0.0000 ( 34862 PWs)   bands (ev):

   -18.0047 -17.6047 -17.3474 -17.2609 -16.8563 -16.8235 -16.7373 -16.5532
    -5.8055  -5.1929  -4.9119  -4.8678  -4.8169  -4.7509  -4.5600  -4.4936
    -4.3333  -3.9906  -3.9541  -3.8029  -3.7002  -3.6731  -3.5683  -3.2253
    -3.2097  -3.1463  -3.1370  -3.0485  -2.9573  -2.8433  -2.7834  -2.7785
    -2.7165  -2.6445  -2.6252  -2.4988  -2.3665  -2.2678  -2.1389  -2.0653
    -2.0117  -2.0108  -1.9327  -1.9297  -1.6925  -1.6014  -1.5722  -1.5091
    -1.4131  -1.3795  -1.3628  -1.1947  -1.1614  -1.1586  -1.1081  -1.0997
    -1.0875  -1.0759  -1.0102  -0.9391  -0.9093  -0.8594  -0.8539  -0.8374
    -0.8363  -0.7338  -0.6973  -0.6534  -0.6393  -0.5858  -0.5831  -0.5470
    -0.5358  -0.4929  -0.4656  -0.4641  -0.4215  -0.4121  -0.3606  -0.3335
    -0.3098  -0.2775  -0.2748  -0.2491  -0.2230  -0.1736  -0.1598  -0.1333
    -0.0659  -0.0564  -0.0245  -0.0227   0.0342   0.0513   0.0606   0.1044
     0.1239   0.1284   0.1595   0.1793   0.2159   0.2276   0.2642   0.3021
     0.3120   0.3368   0.3860   0.4020   0.4777   0.5010   0.5149   0.5450
     0.5495   0.5545   0.6001   0.6096   0.6124   0.6314   0.6438   0.6772
     0.7168   0.7191   0.7554   0.7735   0.7893   0.7977   0.8489   0.8518
     0.8612   0.8679   0.8729   0.8854   0.8923   0.9401   0.9487   0.9605
     0.9772   0.9900   1.0078   1.0187   1.0354   1.0829   1.1070   1.1511
     1.1649   1.1706   1.1986   1.2459   1.2471   1.2730   1.2829   1.2884
     1.2925   1.3077   1.3501   1.4246   1.4280   1.4825   1.4919   1.5068
     1.5211   1.5307   1.5380   1.5701   1.5844   1.6104   1.6211   1.6452
     1.6541   1.6947   1.7155   1.7244   1.7664   1.7728   1.8129   1.8436
     1.8488   1.8916   1.9283   1.9511   1.9788   2.0132   2.0172   2.0781
     2.0858   2.1088   2.1116   2.1341   2.1488   2.1777   2.1902   2.2393
     2.2508   2.2670   2.2904   2.3063   2.3107   2.3517   2.3627   2.3801
     2.4084   2.4161   2.4331   2.4535   2.4546   2.4857   2.4990   2.5131
     2.5160   2.5277   2.5355   2.6355   2.6495   2.6635   2.6724   2.7293
     2.8190   2.8318   2.8494   2.9181   2.9289   3.0411   3.0529   3.0781
     3.2904   3.5139   3.6028   3.6512   3.6904   3.9845   4.2057   4.7548
     4.7913   5.0081   5.2843   5.4159   5.5400   5.6501   5.6747   6.1594
     6.3660   6.8923   7.0939   7.2436   7.3085   7.7711   8.1400   8.1433
     8.2162   8.3099   8.3823   8.4935   8.7960   8.9938   9.1932   9.2408
     9.4443   9.4690   9.5055   9.5268   9.5840   9.6674   9.7661  10.0597
    10.3021  10.4071  10.4719  10.5359  10.5470  10.5633  10.7602  10.7877
    10.8513  11.0550  11.1560  11.1604  11.4558  11.6375  11.7002  11.7408
    11.8217  11.9606  12.0320  12.0968  12.5332  12.5427  12.5706  12.5844
    12.6574  12.6728  12.7751  12.8899  12.9187  13.0599  13.1478  13.2299
    13.2786  13.4572  13.7095  13.7323  13.7686  13.7829  13.8732  13.8921

          k = 0.0442 0.0765 0.0000 ( 34881 PWs)   bands (ev):

   -17.8323 -17.7384 -17.5960 -17.0340 -16.9599 -16.7056 -16.6641 -16.6539
    -5.2352  -5.0923  -5.0805  -5.0775  -4.9416  -4.9282  -4.6310  -4.2943
    -4.2537  -4.2474  -4.1601  -4.1328  -3.7193  -3.5446  -3.4890  -3.2597
    -3.1474  -3.1225  -3.0401  -2.9589  -2.9572  -2.9421  -2.8235  -2.8202
    -2.7850  -2.7270  -2.6233  -2.5243  -2.3692  -2.3632  -2.0130  -1.9931
    -1.9829  -1.6811  -1.6763  -1.6483  -1.6157  -1.6030  -1.5813  -1.4860
    -1.4793  -1.4718  -1.4141  -1.3565  -1.2436  -1.2287  -1.1703  -1.1352
    -1.1315  -1.0265  -1.0229  -1.0033  -0.9500  -0.9437  -0.9317  -0.9244
    -0.7747  -0.7677  -0.6407  -0.6279  -0.6138  -0.6015  -0.5946  -0.5937
    -0.5330  -0.4991  -0.4831  -0.3847  -0.3589  -0.3437  -0.3228  -0.3135
    -0.2988  -0.2769  -0.2337  -0.2300  -0.1889  -0.1648  -0.1568  -0.1443
    -0.1257  -0.0474  -0.0056   0.0247   0.0292   0.0647   0.1179   0.1230
     0.1345   0.1403   0.1467   0.1651   0.2633   0.2754   0.2878   0.2922
     0.2992   0.3011   0.3163   0.3386   0.4558   0.4957   0.4998   0.5015
     0.5024   0.5653   0.5770   0.5807   0.5970   0.6016   0.6057   0.6853
     0.7159   0.7356   0.7424   0.7643   0.7654   0.8158   0.8328   0.8416
     0.8622   0.8750   0.8909   0.8952   0.8960   0.9434   0.9660   0.9727
     0.9793   1.0034   1.0254   1.0265   1.0453   1.0822   1.1410   1.1488
     1.1743   1.1767   1.1829   1.1915   1.1977   1.2356   1.2514   1.2523
     1.3038   1.3058   1.3093   1.4618   1.4786   1.4900   1.4997   1.5197
     1.5247   1.5270   1.5299   1.5344   1.5766   1.5778   1.5845   1.5868
     1.6055   1.6423   1.6447   1.7375   1.7496   1.7809   1.7838   1.7999
     1.8032   1.8732   1.9028   1.9281   1.9673   1.9838   2.0140   2.0364
     2.0425   2.0447   2.1219   2.1322   2.1431   2.1636   2.2086   2.2468
     2.2833   2.2873   2.3631   2.3653   2.3695   2.4157   2.4286   2.4406
     2.4465   2.4470   2.4490   2.4982   2.5001   2.5050   2.5068   2.5113
     2.5217   2.5579   2.5614   2.5637   2.5866   2.6264   2.7026   2.7164
     2.7980   2.8731   3.1454   3.1788   3.1799   3.1973   3.2177   3.2558
     3.6884   3.7750   3.7864   4.1145   4.1466   4.1511   4.5543   4.6425
     4.6717   4.9585   4.9873   4.9980   5.2793   5.5169   5.5273   5.5299
     5.5435   5.5981   6.5917   7.4769   7.4988   7.7960   7.8043   7.8078
     7.9109   8.1077   8.2110   8.4222   8.8545   8.8645   8.9357   9.0978
     9.1184   9.1875   9.3317   9.3348   9.5598   9.7476   9.7620  10.1634
    10.4539  10.4693  10.5864  10.6670  10.7475  10.8132  11.3600  11.3645
    11.3750  11.5204  11.5420  11.6264  11.6568  11.6886  11.9596  12.0195
    12.0254  12.2349  12.3267  12.3548  12.3705  12.4656  12.4784  12.5302
    12.7579  12.7664  12.9688  13.2653  13.2771  13.2873  13.4011  13.4207
    13.4730  13.5941  13.5987  13.6309  13.8412  13.9179  13.9416  14.0535

          k = 0.0442-0.0255 0.0000 ( 34862 PWs)   bands (ev):

   -18.0049 -17.6043 -17.3472 -17.2615 -16.8558 -16.8240 -16.7373 -16.5532
    -5.8054  -5.1922  -4.9112  -4.8686  -4.8167  -4.7505  -4.5601  -4.4937
    -4.3339  -3.9899  -3.9539  -3.8034  -3.7001  -3.6728  -3.5692  -3.2253
    -3.2103  -3.1469  -3.1374  -3.0478  -2.9581  -2.8435  -2.7836  -2.7791
    -2.7164  -2.6459  -2.6247  -2.4976  -2.3641  -2.2688  -2.1386  -2.0658
    -2.0114  -2.0107  -1.9316  -1.9307  -1.6942  -1.6006  -1.5717  -1.5079
    -1.4113  -1.3784  -1.3622  -1.1968  -1.1639  -1.1565  -1.1086  -1.1000
    -1.0894  -1.0778  -1.0061  -0.9386  -0.9096  -0.8606  -0.8551  -0.8385
    -0.8380  -0.7344  -0.6980  -0.6512  -0.6388  -0.5857  -0.5840  -0.5473
    -0.5363  -0.4936  -0.4667  -0.4664  -0.4221  -0.4132  -0.3625  -0.3333
    -0.3105  -0.2766  -0.2760  -0.2498  -0.2219  -0.1726  -0.1589  -0.1338
    -0.0657  -0.0561  -0.0254  -0.0230   0.0335   0.0526   0.0629   0.1058
     0.1248   0.1281   0.1589   0.1779   0.2172   0.2247   0.2636   0.3064
     0.3130   0.3345   0.3867   0.4016   0.4806   0.5035   0.5142   0.5446
     0.5501   0.5546   0.6006   0.6099   0.6107   0.6324   0.6420   0.6741
     0.7223   0.7237   0.7565   0.7756   0.7906   0.7989   0.8492   0.8530
     0.8626   0.8671   0.8738   0.8862   0.8932   0.9396   0.9496   0.9611
     0.9762   0.9908   1.0077   1.0184   1.0354   1.0826   1.1097   1.1485
     1.1616   1.1707   1.1942   1.2456   1.2468   1.2743   1.2831   1.2884
     1.2928   1.3075   1.3493   1.4262   1.4266   1.4830   1.4934   1.5077
     1.5214   1.5315   1.5389   1.5697   1.5842   1.6108   1.6246   1.6406
     1.6582   1.6935   1.7121   1.7251   1.7669   1.7743   1.8133   1.8427
     1.8479   1.8923   1.9284   1.9517   1.9794   2.0133   2.0177   2.0770
     2.0855   2.1088   2.1112   2.1346   2.1484   2.1778   2.1903   2.2392
     2.2510   2.2666   2.2913   2.3079   2.3107   2.3541   2.3610   2.3785
     2.4085   2.4156   2.4312   2.4535   2.4537   2.4853   2.4978   2.5141
     2.5153   2.5272   2.5345   2.6354   2.6492   2.6631   2.6725   2.7285
     2.8171   2.8328   2.8477   2.9187   2.9323   3.0395   3.0530   3.0776
     3.2941   3.5170   3.6047   3.6535   3.6774   3.9809   4.2013   4.7540
     4.7909   5.0106   5.2838   5.4105   5.5412   5.6520   5.6767   6.1573
     6.3623   6.8906   7.0941   7.2495   7.3135   7.7845   8.1389   8.1431
     8.2162   8.3067   8.3796   8.4935   8.8057   8.9945   9.1932   9.2405
     9.4433   9.4675   9.5030   9.5205   9.5847   9.6731   9.7780  10.0608
    10.3011  10.4056  10.4653  10.5315  10.5358  10.5515  10.7591  10.7876
    10.8512  11.0588  11.1610  11.1621  11.4523  11.6369  11.6988  11.7394
    11.8215  11.9611  12.0348  12.0959  12.5295  12.5414  12.5803  12.5878
    12.6540  12.6740  12.7767  12.8949  12.9231  13.0576  13.1380  13.2358
    13.2810  13.4617  13.7131  13.7351  13.7639  13.7816  13.8710  13.8916

     the Fermi energy is     2.2903 ev

!    total energy              =   -3892.08453203 Ry
     Harris-Foulkes estimate   =   -3892.08453355 Ry
     estimated scf accuracy    <       0.00000054 Ry

     The total energy is the sum of the following terms:

     one-electron contribution =  -26759.84013103 Ry
     hartree contribution      =   13801.14491156 Ry
     xc contribution           =   -1576.32692485 Ry
     ewald contribution        =   10643.08993260 Ry
     electric field correction =       0.00162016 Ry
     smearing contrib. (-TS)   =      -0.15394047 Ry

     total magnetization       =    16.85 Bohr mag/cell
     absolute magnetization    =    19.58 Bohr mag/cell

     convergence has been achieved in  11 iterations

     Forces acting on atoms (Ry/au):


     negative rho (up, down):  3.672E-04 3.294E-04
     atom    1 type  1   force =    -0.00056084    0.00033666    0.00372167
     atom    2 type  1   force =     0.00112426   -0.00122244   -0.00521133
     atom    3 type  1   force =     0.00035851   -0.00004287   -0.00020431
     atom    4 type  1   force =     0.00047996    0.00010392    0.00006778
     atom    5 type  1   force =     0.00007297   -0.00077567    0.00369747
     atom    6 type  1   force =     0.00001621    0.00095903   -0.00518970
     atom    7 type  1   force =    -0.00018233    0.00011471    0.00001362
     atom    8 type  1   force =    -0.00012301   -0.00013540    0.00023479
     atom    9 type  1   force =     0.00007976    0.00018652    0.00490645
     atom   10 type  1   force =     0.00044334   -0.00010948   -0.00315716
     atom   11 type  1   force =    -0.00015832    0.00005701   -0.00006427
     atom   12 type  1   force =    -0.00069648    0.00098031    0.00047411
     atom   13 type  1   force =    -0.00008224   -0.00011587    0.00491768
     atom   14 type  1   force =    -0.00026794   -0.00127829   -0.00527809
     atom   15 type  1   force =    -0.00014234    0.00014526    0.00041639
     atom   16 type  1   force =    -0.00032286   -0.00017151    0.00055027
     atom   17 type  1   force =     0.00015626   -0.00000746    0.00428699
     atom   18 type  1   force =     0.00043227   -0.00012742   -0.00563246
     atom   19 type  1   force =     0.00015730   -0.00009021    0.00014290
     atom   20 type  1   force =    -0.00019929    0.00000853    0.00039019
     atom   21 type  1   force =    -0.00005382    0.00007806    0.00491565
     atom   22 type  1   force =    -0.00073833   -0.00028312   -0.00518177
     atom   23 type  1   force =    -0.00008537    0.00012918   -0.00013051
     atom   24 type  1   force =     0.00018308    0.00028593    0.00081676
     atom   25 type  1   force =     0.00065381    0.00030544    0.00370695
     atom   26 type  1   force =     0.00058589   -0.00027541   -0.00365929
     atom   27 type  1   force =    -0.00042098    0.00013954    0.00006091
     atom   28 type  1   force =    -0.00029406   -0.00044440    0.00084355
     atom   29 type  1   force =    -0.00018849    0.00005017    0.00426159
     atom   30 type  1   force =     0.00103648    0.00099646   -0.00526960
     atom   31 type  1   force =    -0.00020635    0.00009591    0.00019027
     atom   32 type  1   force =    -0.00092522    0.00013243    0.00046977
     atom   33 type  1   force =     0.00003468   -0.00010712    0.00429437
     atom   34 type  1   force =     0.00166435   -0.00019450   -0.00518850
     atom   35 type  1   force =     0.00005013   -0.00028494   -0.00018393
     atom   36 type  1   force =    -0.00055628    0.00033668    0.00088873
     atom   37 type  2   force =     0.00023101    0.00011429   -0.00022166
     atom   38 type  2   force =    -0.00054179    0.00010261    0.00002599
     atom   39 type  2   force =    -0.00032095    0.00002737   -0.00033334
     atom   40 type  2   force =    -0.00018349    0.00021582    0.00038007
     atom   41 type  2   force =     0.00020455   -0.00055845   -0.00014313
     atom   42 type  2   force =    -0.00007493   -0.00011517    0.00034608
     atom   43 type  2   force =    -0.00014811    0.00032439   -0.00026209
     atom   44 type  2   force =    -0.00049100    0.00011352    0.00029012

     Total force =     0.020254     Total SCF correction =     0.002591
     SCF correction compared to forces is large: reduce conv_thr to get better values
 !ASE

     Writing output data file calc.save
 
     init_run     :     29.40s CPU     33.91s WALL (       1 calls)
     electrons    :  33309.31s CPU  38382.40s WALL (      20 calls)
     update_pot   :     43.25s CPU     45.63s WALL (      19 calls)
     forces       :    957.48s CPU    994.44s WALL (      20 calls)

     Called by init_run:
     wfcinit      :     19.87s CPU     23.84s WALL (       1 calls)
     potinit      :      0.95s CPU      1.03s WALL (       1 calls)

     Called by electrons:
     c_bands      :  22571.62s CPU  26463.33s WALL (     461 calls)
     sum_band     :   7819.51s CPU   8803.99s WALL (     461 calls)
     v_of_rho     :    159.75s CPU    182.46s WALL (     481 calls)
     newd         :   2834.40s CPU   3005.42s WALL (     481 calls)
     mix_rho      :     29.92s CPU     36.13s WALL (     461 calls)

     Called by c_bands:
     init_us_2    :    114.64s CPU    121.18s WALL (    9430 calls)
     cegterg      :  21931.10s CPU  25795.63s WALL (    4610 calls)

     Called by *egterg:
     h_psi        :  10957.68s CPU  13992.01s WALL (   12286 calls)
     s_psi        :   1841.69s CPU   1912.39s WALL (   12286 calls)
     g_psi        :     43.71s CPU     44.87s WALL (    7666 calls)
     cdiaghg      :   3949.02s CPU   4043.26s WALL (   12086 calls)

     Called by h_psi:
     add_vuspsi   :   1857.07s CPU   1922.56s WALL (   12286 calls)

     General routines
     calbec       :   2889.49s CPU   2956.52s WALL (   17096 calls)
     fft          :    145.96s CPU    170.25s WALL (   15091 calls)
     ffts         :      2.14s CPU      2.95s WALL (    1884 calls)
     fftw         :   5844.15s CPU   9429.53s WALL ( 7505318 calls)
     interpolate  :     17.41s CPU     24.82s WALL (    1884 calls)
     davcio       :      0.02s CPU      0.50s WALL (      10 calls)
 
     Parallel routines
     fft_scatter  :   3355.96s CPU   5370.61s WALL ( 7522293 calls)
 
     PWSCF        :     9h34m CPU       10h59m WALL

 
   This run was terminated on:   2:51:36  19Mar2017            

=------------------------------------------------------------------------------=
   JOB DONE.
=------------------------------------------------------------------------------=
